       N       E                     dE             d eps       ncg     rms          rms(c)
DAV:   1     0.793515453657E+04    0.79352E+04   -0.66318E+05  6328   0.140E+03
DAV:   2     0.991201083156E+02   -0.78360E+04   -0.76802E+04  5368   0.463E+02
DAV:   3    -0.211258005633E+03   -0.31038E+03   -0.30640E+03  5520   0.114E+02
DAV:   4    -0.215982073022E+03   -0.47241E+01   -0.47180E+01  5272   0.142E+01
DAV:   5    -0.216208022784E+03   -0.22595E+00   -0.22581E+00  6936   0.260E+00
DAV:   6    -0.216214476758E+03   -0.64540E-02   -0.64535E-02  5440   0.450E-01
DAV:   7    -0.216214904758E+03   -0.42800E-03   -0.42799E-03  6696   0.105E-01
DAV:   8    -0.216214911619E+03   -0.68608E-05   -0.68613E-05  3392   0.967E-03
   1 F= -.24456815E+03 E0= -.24456815E+03  d E =0.000000E+00
