50% Ag d-band analysis                  
           1
    10.281333    0.000000    0.000000
     5.140666    8.903895    0.000000
     0.000000    0.000000   36.296005
   Ag   Cu
     8    56
Direct configuration=     1
   0.49433710  0.26132579  0.59062930
   0.99433710  0.26132579  0.59062930
   0.24433710  0.26132579  0.59062930
   0.74433710  0.26132579  0.59062930
   0.00622349  0.98755302  0.59071825
   0.25622349  0.98755302  0.59071825
   0.50622349  0.98755302  0.59071825
   0.75622349  0.98755302  0.59071825
   0.66634378  0.66731245  0.52509220
   0.41634378  0.66731245  0.52509220
   0.16634378  0.66731245  0.52509220
   0.91634378  0.66731245  0.52509220
   0.00000000  0.00000000  0.41326863
   0.66736084  0.41527832  0.52609916
   0.41736084  0.41527832  0.52609916
   0.16736084  0.41527832  0.52609916
   0.91736084  0.41527832  0.52609916
   0.66719317  0.16561365  0.52731949
   0.41719317  0.16561365  0.52731949
   0.91620966  0.91758067  0.52649810
   0.16620966  0.91758067  0.52649810
   0.66620966  0.91758067  0.52649810
   0.16719317  0.16561365  0.52731949
   0.99503673  0.50992654  0.58111284
   0.24503673  0.50992654  0.58111284
   0.49503673  0.50992654  0.58111284
   0.74503673  0.50992654  0.58111284
   0.00541839  0.73916323  0.58094567
   0.25541839  0.73916323  0.58094567
   0.41620966  0.91758067  0.52649810
   0.91719317  0.16561365  0.52731949
   0.83333333  0.83333333  0.47108954
   0.58333333  0.83333333  0.47108954
   0.25000000  0.00000000  0.41326863
   0.50000000  0.00000000  0.41326863
   0.75000000  0.00000000  0.41326863
   0.00000000  0.25000000  0.41326863
   0.25000000  0.25000000  0.41326863
   0.50000000  0.25000000  0.41326863
   0.75000000  0.25000000  0.41326863
   0.00000000  0.50000000  0.41326863
   0.25000000  0.50000000  0.41326863
   0.50000000  0.50000000  0.41326863
   0.75000000  0.50000000  0.41326863
   0.00000000  0.75000000  0.41326863
   0.25000000  0.75000000  0.41326863
   0.50000000  0.75000000  0.41326863
   0.75000000  0.75000000  0.41326863
   0.08333333  0.08333333  0.47108954
   0.33333333  0.08333333  0.47108954
   0.58333333  0.08333333  0.47108954
   0.83333333  0.08333333  0.47108954
   0.08333333  0.33333333  0.47108954
   0.33333333  0.33333333  0.47108954
   0.58333333  0.33333333  0.47108954
   0.83333333  0.33333333  0.47108954
   0.08333333  0.58333333  0.47108954
   0.33333333  0.58333333  0.47108954
   0.58333333  0.58333333  0.47108954
   0.83333333  0.58333333  0.47108954
   0.08333333  0.83333333  0.47108954
   0.33333333  0.83333333  0.47108954
   0.50541839  0.73916323  0.58094567
   0.75541839  0.73916323  0.58094567
