       N       E                     dE             d eps       ncg     rms          rms(c)
DAV:   1     0.241336537226E+04    0.24134E+04   -0.16227E+05  1912   0.125E+03
DAV:   2     0.375660189071E+02   -0.23758E+04   -0.22330E+04  2126   0.285E+02
DAV:   3    -0.778702979595E+02   -0.11544E+03   -0.11248E+03  2072   0.584E+01
DAV:   4    -0.799004093585E+02   -0.20301E+01   -0.20231E+01  2128   0.794E+00
DAV:   5    -0.799455447479E+02   -0.45135E-01   -0.45081E-01  2208   0.116E+00    0.274E+01
DAV:   6    -0.740338207479E+02    0.59117E+01   -0.21401E+01  1984   0.128E+01    0.183E+01
DAV:   7    -0.738304195387E+02    0.20340E+00   -0.81620E-01  1976   0.294E+00    0.909E+00
DAV:   8    -0.737920034489E+02    0.38416E-01   -0.88428E-02  2009   0.143E+00    0.534E-01
DAV:   9    -0.737885500496E+02    0.34534E-02   -0.71611E-03  1992   0.777E-01    0.149E-01
DAV:  10    -0.737879267534E+02    0.62330E-03   -0.25429E-03  2014   0.158E-01    0.935E-02
DAV:  11    -0.737877051094E+02    0.22164E-03   -0.10859E-03  2003   0.247E-01    0.711E-02
DAV:  12    -0.737874635155E+02    0.24159E-03   -0.78011E-04  1974   0.216E-01    0.264E-02
DAV:  13    -0.737875950030E+02   -0.13149E-03   -0.20146E-04  1966   0.698E-02    0.178E-02
DAV:  14    -0.737879852520E+02   -0.39025E-03   -0.11899E-04  1977   0.289E-02    0.141E-02
DAV:  15    -0.737882200201E+02   -0.23477E-03   -0.42243E-05  1921   0.325E-02    0.908E-03
DAV:  16    -0.737884477028E+02   -0.22768E-03   -0.28814E-05  1932   0.124E-02    0.407E-03
DAV:  17    -0.737885533631E+02   -0.10566E-03   -0.42415E-06  1299   0.387E-03    0.207E-03
DAV:  18    -0.737886675479E+02   -0.11418E-03   -0.77289E-06  1271   0.502E-03    0.160E-03
DAV:  19    -0.737887454054E+02   -0.77858E-04   -0.24369E-06  1196   0.359E-03    0.230E-03
DAV:  20    -0.737887708147E+02   -0.25409E-04   -0.65643E-07  1191   0.201E-03    0.687E-04
DAV:  21    -0.737887875130E+02   -0.16698E-04   -0.23050E-07  1156   0.123E-03    0.505E-04
DAV:  22    -0.737887985173E+02   -0.11004E-04   -0.17471E-07  1153   0.469E-04    0.184E-04
DAV:  23    -0.737888011895E+02   -0.26722E-05   -0.37349E-08  1163   0.313E-04    0.123E-04
DAV:  24    -0.737888022900E+02   -0.11005E-05   -0.16104E-08  1134   0.229E-04    0.431E-05
DAV:  25    -0.737888024061E+02   -0.11607E-06   -0.29384E-09  1099   0.773E-05
   1 F= -.73788802E+02 E0= -.73764679E+02  d E =-.737888E+02
       N       E                     dE             d eps       ncg     rms          rms(c)
DAV:   1    -0.738241091620E+02   -0.35307E-01   -0.16446E+01  1896   0.742E+00    0.233E-01
DAV:   2    -0.738339928979E+02   -0.98837E-02   -0.10118E-01  1932   0.916E-01    0.206E-01
DAV:   3    -0.738339028084E+02    0.90089E-04   -0.23063E-03  1948   0.235E-01    0.123E-01
DAV:   4    -0.738340469287E+02   -0.14412E-03   -0.17891E-03  1956   0.345E-01    0.126E-01
DAV:   5    -0.738337114518E+02    0.33548E-03   -0.17512E-03  2298   0.322E-01    0.221E-02
DAV:   6    -0.738336761938E+02    0.35258E-04   -0.28858E-04  1942   0.101E-01    0.199E-02
DAV:   7    -0.738336729729E+02    0.32210E-05   -0.25749E-05  2022   0.139E-02    0.131E-02
DAV:   8    -0.738336684701E+02    0.45027E-05   -0.15357E-05  1916   0.134E-02    0.343E-03
DAV:   9    -0.738336692658E+02   -0.79564E-06   -0.19207E-06  1140   0.512E-03
   2 F= -.73833669E+02 E0= -.73809351E+02  d E =-.448669E-01
       N       E                     dE             d eps       ncg     rms          rms(c)
DAV:   1    -0.738623932569E+02   -0.28725E-01   -0.46958E+01  1896   0.125E+01    0.372E-01
DAV:   2    -0.738904838034E+02   -0.28091E-01   -0.28687E-01  1922   0.153E+00    0.336E-01
DAV:   3    -0.738902594974E+02    0.22431E-03   -0.62659E-03  1946   0.366E-01    0.207E-01
DAV:   4    -0.738906455871E+02   -0.38609E-03   -0.45261E-03  1946   0.548E-01    0.213E-01
DAV:   5    -0.738897244011E+02    0.92119E-03   -0.47912E-03  2269   0.520E-01    0.395E-02
DAV:   6    -0.738896350021E+02    0.89399E-04   -0.85080E-04  1945   0.172E-01    0.374E-02
DAV:   7    -0.738896246966E+02    0.10305E-04   -0.76038E-05  2030   0.246E-02    0.227E-02
DAV:   8    -0.738896111457E+02    0.13551E-04   -0.43799E-05  1927   0.247E-02    0.551E-03
DAV:   9    -0.738896135527E+02   -0.24070E-05   -0.65465E-06  1930   0.943E-03    0.478E-03
DAV:  10    -0.738896148364E+02   -0.12837E-05   -0.64605E-07  1134   0.182E-03    0.239E-03
DAV:  11    -0.738896159167E+02   -0.10803E-05   -0.12641E-07  1090   0.162E-03    0.965E-04
DAV:  12    -0.738896169412E+02   -0.10245E-05   -0.85138E-08  1111   0.698E-04    0.407E-04
DAV:  13    -0.738896178730E+02   -0.93185E-06   -0.15101E-08  1098   0.281E-04
   3 F= -.73889618E+02 E0= -.73865256E+02  d E =-.100815E+00
       N       E                     dE             d eps       ncg     rms          rms(c)
DAV:   1    -0.738325154427E+02    0.57101E-01   -0.18934E+02  1896   0.250E+01    0.683E-01
DAV:   2    -0.739447696831E+02   -0.11225E+00   -0.11433E+00  1922   0.302E+00    0.630E-01
DAV:   3    -0.739440296961E+02    0.73999E-03   -0.22007E-02  1977   0.621E-01    0.418E-01
DAV:   4    -0.739457016409E+02   -0.16719E-02   -0.10412E-02  1967   0.100E+00    0.433E-01
DAV:   5    -0.739417782781E+02    0.39234E-02   -0.12112E-02  2338   0.943E-01    0.987E-02
DAV:   6    -0.739416456192E+02    0.13266E-03   -0.29980E-03  1953   0.312E-01    0.923E-02
DAV:   7    -0.739416157587E+02    0.29861E-04   -0.29749E-04  2010   0.507E-02    0.533E-02
DAV:   8    -0.739415540246E+02    0.61734E-04   -0.17875E-04  1906   0.618E-02    0.130E-02
DAV:   9    -0.739415629535E+02   -0.89288E-05   -0.37698E-05  1938   0.239E-02    0.109E-02
DAV:  10    -0.739415658353E+02   -0.28818E-05   -0.13798E-06  1217   0.355E-03    0.531E-03
DAV:  11    -0.739415680022E+02   -0.21669E-05   -0.60475E-07  1106   0.317E-03    0.191E-03
DAV:  12    -0.739415707946E+02   -0.27925E-05   -0.46896E-07  1125   0.170E-03    0.495E-04
DAV:  13    -0.739415719187E+02   -0.11241E-05   -0.51767E-08  1097   0.608E-04    0.226E-04
DAV:  14    -0.739415735627E+02   -0.16440E-05   -0.21664E-08  1093   0.302E-04    0.200E-04
DAV:  15    -0.739415752457E+02   -0.16830E-05   -0.56249E-08  1109   0.389E-04    0.331E-04
DAV:  16    -0.739415755956E+02   -0.34994E-06   -0.26047E-08  1108   0.287E-04
   4 F= -.73941576E+02 E0= -.73918057E+02  d E =-.152773E+00
       N       E                     dE             d eps       ncg     rms          rms(c)
DAV:   1    -0.739663721954E+02   -0.24797E-01   -0.59882E+01  1896   0.144E+01    0.335E-01
DAV:   2    -0.739991308398E+02   -0.32759E-01   -0.32877E-01  1906   0.168E+00    0.272E-01
DAV:   3    -0.739986128737E+02    0.51797E-03   -0.57502E-03  1972   0.323E-01    0.215E-01
DAV:   4    -0.739982803293E+02    0.33254E-03   -0.16529E-03  1930   0.379E-01    0.159E-01
DAV:   5    -0.739979303091E+02    0.35002E-03   -0.38559E-03  1927   0.369E-01    0.615E-02
DAV:   6    -0.739977739069E+02    0.15640E-03   -0.65466E-04  1946   0.176E-01    0.284E-02
DAV:   7    -0.739977717904E+02    0.21165E-05   -0.30377E-05  2009   0.144E-02    0.251E-02
DAV:   8    -0.739977607891E+02    0.11001E-04   -0.20080E-05  1922   0.245E-02    0.100E-02
DAV:   9    -0.739977596778E+02    0.11112E-05   -0.24461E-05  1922   0.140E-02    0.416E-03
DAV:  10    -0.739977595673E+02    0.11054E-06   -0.10937E-06  1090   0.307E-03
   5 F= -.73997760E+02 E0= -.73975084E+02  d E =-.561840E-01
       N       E                     dE             d eps       ncg     rms          rms(c)
DAV:   1    -0.739733253031E+02    0.24434E-01   -0.14291E+02  1896   0.223E+01    0.489E-01
DAV:   2    -0.740513230021E+02   -0.77998E-01   -0.78187E-01  1932   0.260E+00    0.418E-01
DAV:   3    -0.740502906245E+02    0.10324E-02   -0.12879E-02  1991   0.436E-01    0.333E-01
DAV:   4    -0.740496303783E+02    0.66025E-03   -0.32102E-03  1943   0.535E-01    0.258E-01
DAV:   5    -0.740485251134E+02    0.11053E-02   -0.90702E-03  1943   0.572E-01    0.901E-02
DAV:   6    -0.740481852254E+02    0.33989E-03   -0.16671E-03  1951   0.286E-01    0.484E-02
DAV:   7    -0.740481843016E+02    0.92376E-06   -0.88724E-05  2012   0.236E-02    0.434E-02
DAV:   8    -0.740481583246E+02    0.25977E-04   -0.37886E-05  1930   0.350E-02    0.216E-02
DAV:   9    -0.740481550263E+02    0.32983E-05   -0.75675E-05  1922   0.212E-02    0.768E-03
DAV:  10    -0.740481548798E+02    0.14645E-06   -0.30941E-06  1386   0.528E-03
   6 F= -.74048155E+02 E0= -.74026853E+02  d E =-.106579E+00
       N       E                     dE             d eps       ncg     rms          rms(c)
DAV:   1    -0.737747901208E+02    0.27336E+00   -0.57857E+02  1896   0.452E+01    0.979E-01
DAV:   2    -0.740899511273E+02   -0.31516E+00   -0.31554E+00  1919   0.523E+00    0.873E-01
DAV:   3    -0.740867661162E+02    0.31850E-02   -0.49306E-02  2046   0.694E-01    0.687E-01
DAV:   4    -0.740847127879E+02    0.20533E-02   -0.10315E-02  1977   0.980E-01    0.540E-01
DAV:   5    -0.740791680071E+02    0.55448E-02   -0.28996E-02  2028   0.118E+00    0.216E-01
DAV:   6    -0.740780633572E+02    0.11046E-02   -0.81585E-03  1937   0.601E-01    0.111E-01
DAV:   7    -0.740781418441E+02   -0.78487E-04   -0.87769E-04  2049   0.704E-02    0.101E-01
DAV:   8    -0.740781340568E+02    0.77873E-05   -0.14494E-05  2065   0.961E-03    0.100E-01
DAV:   9    -0.740780361710E+02    0.97886E-04   -0.19230E-04  1906   0.320E-02    0.610E-02
DAV:  10    -0.740780527740E+02   -0.16603E-04   -0.28895E-05  1906   0.310E-02    0.293E-02
DAV:  11    -0.740780580746E+02   -0.53006E-05   -0.93683E-05  1914   0.199E-02    0.264E-02
DAV:  12    -0.740780613373E+02   -0.32627E-05   -0.15923E-06  1196   0.406E-03    0.227E-02
DAV:  13    -0.740780632595E+02   -0.19222E-05   -0.16911E-06  1146   0.409E-03    0.154E-02
DAV:  14    -0.740780683191E+02   -0.50595E-05   -0.12982E-05  1927   0.909E-03    0.768E-03
DAV:  15    -0.740780700588E+02   -0.17397E-05   -0.21141E-07  1156   0.123E-03    0.692E-03
DAV:  16    -0.740780720155E+02   -0.19567E-05   -0.48177E-07  1138   0.272E-03    0.354E-03
DAV:  17    -0.740780734897E+02   -0.14742E-05   -0.14611E-07  1138   0.750E-04    0.318E-03
DAV:  18    -0.740780738973E+02   -0.40763E-06   -0.37277E-08  1071   0.452E-04
   7 F= -.74078074E+02 E0= -.74057922E+02  d E =-.136498E+00
       N       E                     dE             d eps       ncg     rms          rms(c)
DAV:   1    -0.740707906330E+02    0.72829E-02   -0.15146E+01  1896   0.724E+00    0.159E-01
DAV:   2    -0.740792484555E+02   -0.84578E-02   -0.84690E-02  1932   0.851E-01    0.122E-01
DAV:   3    -0.740791345218E+02    0.11393E-03   -0.14918E-03  1956   0.180E-01    0.939E-02
DAV:   4    -0.740790431166E+02    0.91405E-04   -0.39887E-04  1922   0.182E-01    0.723E-02
DAV:   5    -0.740789862440E+02    0.56873E-04   -0.84567E-04  1919   0.161E-01    0.276E-02
DAV:   6    -0.740789549509E+02    0.31293E-04   -0.13715E-04  1956   0.801E-02    0.124E-02
DAV:   7    -0.740789543339E+02    0.61700E-06   -0.70421E-06  1959   0.767E-03
   8 F= -.74078954E+02 E0= -.74058790E+02  d E =-.137379E+00
       N       E                     dE             d eps       ncg     rms          rms(c)
DAV:   1    -0.740788683385E+02    0.86612E-04   -0.12577E-01  1896   0.660E-01    0.149E-02
DAV:   2    -0.740789413289E+02   -0.72990E-04   -0.71644E-04  1927   0.806E-02    0.138E-02
DAV:   3    -0.740789405202E+02    0.80862E-06   -0.18571E-05  1917   0.272E-02    0.885E-03
DAV:   4    -0.740789403197E+02    0.20053E-06   -0.36749E-06  1146   0.170E-02
   9 F= -.74078940E+02 E0= -.74058773E+02  d E =-.137365E+00
       N       E                     dE             d eps       ncg     rms          rms(c)
DAV:   1    -0.740789357171E+02    0.48031E-05   -0.21870E-02  1919   0.275E-01    0.612E-03
DAV:   2    -0.740789478187E+02   -0.12102E-04   -0.12127E-04  1932   0.365E-02    0.726E-03
DAV:   3    -0.740789469552E+02    0.86345E-06   -0.53704E-06  1781   0.162E-02
  10 F= -.74078947E+02 E0= -.74058781E+02  d E =-.137371E+00
       N       E                     dE             d eps       ncg     rms          rms(c)
DAV:   1    -0.740789381095E+02    0.97092E-05   -0.10773E-02  1896   0.193E-01    0.374E-03
DAV:   2    -0.740789443686E+02   -0.62591E-05   -0.61351E-05  1940   0.225E-02    0.163E-03
DAV:   3    -0.740789445386E+02   -0.17002E-06   -0.81777E-07  1050   0.340E-03
  11 F= -.74078945E+02 E0= -.74058778E+02  d E =-.137369E+00
       N       E                     dE             d eps       ncg     rms          rms(c)
DAV:   1    -0.740779690808E+02    0.97529E-03   -0.67988E+00  1896   0.467E+00    0.122E-01
DAV:   2    -0.740820850492E+02   -0.41160E-02   -0.41696E-02  1922   0.573E-01    0.110E-01
DAV:   3    -0.740820482614E+02    0.36788E-04   -0.78713E-04  1954   0.125E-01    0.710E-02
DAV:   4    -0.740820825059E+02   -0.34244E-04   -0.35638E-04  1941   0.182E-01    0.741E-02
DAV:   5    -0.740819733755E+02    0.10913E-03   -0.43359E-04  2245   0.175E-01    0.142E-02
DAV:   6    -0.740819616528E+02    0.11723E-04   -0.99617E-05  1919   0.616E-02    0.148E-02
DAV:   7    -0.740819600025E+02    0.16503E-05   -0.91040E-06  1938   0.840E-03    0.890E-03
DAV:   8    -0.740819581866E+02    0.18158E-05   -0.54366E-06  1823   0.939E-03    0.201E-03
DAV:   9    -0.740819583428E+02   -0.15617E-06   -0.80979E-07  1084   0.338E-03
  12 F= -.74081958E+02 E0= -.74061807E+02  d E =-.301380E-02
