 vasp.6.5.1 10Mar25 (build Mar 23 2026 16:02:54) complex                         
 executed on              LinuxNV date 2026.03.24  08:46:59
 running    1 mpi-ranks, with    1 threads/rank, on    1 nodes
 distrk:  each k-point on    1 cores,    1 groups
 distr:  one band on NCORE=   1 cores,    1 groups
 Offloading initialized ...    1 GPUs detected


--------------------------------------------------------------------------------------------------------


 INCAR:
   SYSTEM = Cu-Ag alloy CO adsorption (RPBE, matches CatHub)
   ENCUT = 450
   EDIFF = 1E-6
   ISMEAR = 0
   SIGMA = 0.1
   ALGO = Normal
   NELM = 200
   PREC = Normal
   GGA = RP
   IBRION = 2
   NSW = 200
   ISIF = 2
   EDIFFG = -0.03
   ISPIN = 1
   LREAL = Auto
   LORBIT = 11
   LWAVE = .FALSE.
   LCHARG = .FALSE.

 POTCAR:    PAW_PBE Ag 02Apr2005                  
 POTCAR:    PAW_PBE Ag 02Apr2005                  
   SHA256 =  6550cfa3543261e132c169e1b98a529204624d72be14e2da2e0242bcb74a174d Ag/POTCAR             
   COPYR  = (c) Copyright 02Apr2005 Georg Kresse                                                    
   COPYR  = This file is part of the software VASP. Any use, copying, and all other rights are regul
   COPYR  = If you do not have a valid VASP license, you may not use, copy or distribute this file. 
   VRHFIN =Ag : s1 d10                                                                              
   LEXCH  = PE                                                                                      
   EATOM  =  1037.2675 eV,   76.2370 Ry                                                             
                                                                                                    
   TITEL  = PAW_PBE Ag 02Apr2005                                                                    
   LULTRA =        F    use ultrasoft PP ?                                                          
   IUNSCR =        1    unscreen: 0-lin 1-nonlin 2-no                                               
   RPACOR =    2.000    partial core radius                                                         
   POMASS =  107.868; ZVAL   =   11.000    mass and valenz                                          
   RCORE  =    2.500    outmost cutoff radius                                                       
   RWIGS  =    2.840; RWIGS  =    1.503    wigner-seitz radius (au A)                               
   ENMAX  =  249.844; ENMIN  =  187.383 eV                                                          
   ICORE  =        3    local potential                                                             
   LCOR   =        T    correct aug charges                                                         
   LPAW   =        T    paw PP                                                                      
   EAUG   =  412.496                                                                                
   DEXC   =    0.000                                                                                
   RMAX   =    2.560    core radius for proj-oper                                                   
   RAUG   =    1.300    factor for augmentation sphere                                              
   RDEP   =    2.576    radius for radial grids                                                     
   RDEPT  =    2.072    core radius for aug-charge                                                  
                                                                                                    
   Atomic configuration                                                                             
   12 entries                                                                                       
     n  l   j            E        occ.                                                              
     1  0  0.50    -25324.9161   2.0000                                                             
     2  0  0.50     -3728.5341   2.0000                                                             
     2  1  1.50     -3344.0404   6.0000                                                             
     3  0  0.50      -683.5581   2.0000                                                             
     3  1  1.50      -557.3225   6.0000                                                             
     3  2  2.50      -358.3853  10.0000                                                             
     4  0  0.50       -95.0341   2.0000                                                             
     4  1  1.50       -58.5511   6.0000                                                             
     4  2  2.50        -7.4440  10.0000                                                             
     5  0  0.50        -4.4045   1.0000                                                             
     5  1  0.50        -1.3606   0.0000                                                             
     4  3  2.50        -1.3606   0.0000                                                             
   Description                                                                                      
     l       E           TYP  RCUT    TYP  RCUT                                                     
     2     -7.4439781     23  2.400                                                                 
     2     -8.8045607     23  2.400                                                                 
     0     -4.4044681     23  2.400                                                                 
     0      1.9520038     23  2.400                                                                 
     1     -1.3605826     23  2.500                                                                 
     1     27.2116520     23  2.500                                                                 
     3     -4.0817478     23  2.400                                                                 
  local pseudopotential read in
  partial core-charges read in
  partial kinetic energy density read in
  atomic valenz-charges read in
  non local Contribution for L=            2  read in
    real space projection operators read in
  non local Contribution for L=            2  read in
    real space projection operators read in
  non local Contribution for L=            0  read in
    real space projection operators read in
  non local Contribution for L=            0  read in
    real space projection operators read in
  non local Contribution for L=            1  read in
    real space projection operators read in
  non local Contribution for L=            1  read in
    real space projection operators read in
    PAW grid and wavefunctions read in
 
   number of l-projection  operators is LMAX  =            6
   number of lm-projection operators is LMMAX =           18
 
 Optimization of the real space projectors (new method)

 maximal supplied QI-value         = 15.12
 optimisation between [QCUT,QGAM] = [ 10.73, 21.62] = [ 32.26,130.87] Ry 
 Optimized for a Real-space Cutoff    1.42 Angstroem

   l    n(q)    QCUT    max X(q) W(low)/X(q) W(high)/X(q)  e(spline) 
   2      8    10.734    53.897    0.46E-03    0.48E-03    0.17E-06
   2      8    10.734    52.416    0.47E-03    0.50E-03    0.17E-06
   0      9    10.734   122.045    0.16E-03    0.13E-03    0.44E-07
   0      9    10.734    73.629    0.16E-03    0.13E-03    0.43E-07
   1      9    10.734    15.255    0.66E-04    0.32E-03    0.15E-06
   1      9    10.734     9.562    0.55E-04    0.26E-03    0.12E-06
 -----------------------------------------------------------------------------
|                                                                             |
|               ----> ADVICE to this user running VASP <----                  |
|                                                                             |
|     You enforced a specific xc type in the INCAR file but a different       |
|     type was found in the POTCAR file.                                      |
|     I HOPE YOU KNOW WHAT YOU ARE DOING!                                     |
|                                                                             |
 -----------------------------------------------------------------------------

  PAW_PBE Ag 02Apr2005                  :
 energy of atom  1       EATOM=-1037.2675
 kinetic energy error for atom=    0.0055 (will be added to EATOM!!)
 
 
 POSCAR: Ag(111) clean slab
  positions in cartesian coordinates
  No initial velocities read in


 exchange-correlation table for RP
   RHO(1)=    0.500       N(1)  =     2000
   RHO(2)=  100.500       N(2)  =     4000
 


--------------------------------------------------------------------------------------------------------


 ion  position               nearest neighbor table
   1  0.000  0.000  0.386-   4 2.89   6 2.89   7 2.89   8 2.89   2 2.89   3 2.89  12 2.89  16 2.89
                            10 2.89
   2  0.333  0.000  0.386-   3 2.89   9 2.89   5 2.89   8 2.89   4 2.89   1 2.89  10 2.89  11 2.89
                            17 2.89
   3  0.667  0.000  0.386-   2 2.89   5 2.89   6 2.89   7 2.89   9 2.89   1 2.89  11 2.89  18 2.89
                            12 2.89
   4  0.000  0.333  0.386-   7 2.89   9 2.89   1 2.89   2 2.89   5 2.89   6 2.89  10 2.89  13 2.89
                            15 2.89
   5  0.333  0.333  0.386-   8 2.89   6 2.89   3 2.89   7 2.89   2 2.89   4 2.89  14 2.89  13 2.89
                            11 2.89
   6  0.667  0.333  0.386-   8 2.89   9 2.89   5 2.89   3 2.89   1 2.89   4 2.89  12 2.89  14 2.89
                            15 2.89
   7  0.000  0.667  0.386-   4 2.89   5 2.89   1 2.89   3 2.89   8 2.89   9 2.89  13 2.89  18 2.89
                            16 2.89
   8  0.333  0.667  0.386-   5 2.89   6 2.89   9 2.89   2 2.89   1 2.89   7 2.89  14 2.89  16 2.89
                            17 2.89
   9  0.667  0.667  0.386-   6 2.89   8 2.89   2 2.89   4 2.89   3 2.89   7 2.89  15 2.89  17 2.89
                            18 2.89
  10  0.111  0.111  0.462-  20 2.89  19 2.89  26 2.89  13 2.89  11 2.89  17 2.89  15 2.89  16 2.89
                            12 2.89   4 2.89   2 2.89   1 2.89
  11  0.444  0.111  0.462-  20 2.89  21 2.89  27 2.89  14 2.89  13 2.89  10 2.89  18 2.89  17 2.89
                            12 2.89   2 2.89   3 2.89   5 2.89
  12  0.778  0.111  0.462-  19 2.89  21 2.89  25 2.89  15 2.89  14 2.89  18 2.89  16 2.89  11 2.89
                            10 2.89   6 2.89   1 2.89   3 2.89
  13  0.111  0.444  0.462-  20 2.89  23 2.89  22 2.89  11 2.89  10 2.89  14 2.89  18 2.89  16 2.89
                            15 2.89   4 2.89   5 2.89   7 2.89
  14  0.444  0.444  0.462-  21 2.89  23 2.89  24 2.89  11 2.89  13 2.89  16 2.89  12 2.89  17 2.89
                            15 2.89   5 2.89   8 2.89   6 2.89
  15  0.778  0.444  0.462-  19 2.89  22 2.89  24 2.89  12 2.89  10 2.89  18 2.89  17 2.89  14 2.89
                            13 2.89   4 2.89   6 2.89   9 2.89
  16  0.111  0.778  0.462-  26 2.89  23 2.89  25 2.89  17 2.89  14 2.89  13 2.89  10 2.89  12 2.89
                            18 2.89   8 2.89   1 2.89   7 2.89
  17  0.444  0.778  0.462-  24 2.89  26 2.89  27 2.89  16 2.89  10 2.89  14 2.89  15 2.89  11 2.89
                            18 2.89   2 2.89   8 2.89   9 2.89
  18  0.778  0.778  0.462-  25 2.89  22 2.89  27 2.89  15 2.89  11 2.89  12 2.89  13 2.89  17 2.89
                            16 2.89   7 2.89   3 2.89   9 2.89
  19  0.889  0.222  0.538-  12 2.89  15 2.89  10 2.89  21 2.89  24 2.89  22 2.89  25 2.89  26 2.89
                            20 2.89  28 2.89  33 2.89  31 2.89
  20  0.222  0.222  0.538-  10 2.89  11 2.89  13 2.89  22 2.89  23 2.89  26 2.89  27 2.89  19 2.89
                            21 2.89  29 2.89  31 2.89  32 2.89
  21  0.556  0.222  0.538-  11 2.89  12 2.89  14 2.89  19 2.89  25 2.89  24 2.89  23 2.89  27 2.89
                            20 2.89  30 2.89  32 2.89  33 2.89
  22  0.889  0.556  0.538-  15 2.89  18 2.89  13 2.89  25 2.89  27 2.89  24 2.89  20 2.89  19 2.89
                            23 2.89  31 2.89  34 2.89  36 2.89
  23  0.222  0.556  0.538-  13 2.89  14 2.89  16 2.89  26 2.89  25 2.89  20 2.89  21 2.89  22 2.89
                            24 2.89  32 2.89  34 2.89  35 2.89
  24  0.556  0.556  0.538-  15 2.89  17 2.89  14 2.89  27 2.89  22 2.89  19 2.89  26 2.89  21 2.89
                            23 2.89  36 2.89  35 2.89  33 2.89
  25  0.889  0.889  0.538-  18 2.89  16 2.89  12 2.89  22 2.89  27 2.89  21 2.89  23 2.89  19 2.89
                            26 2.89  30 2.89  34 2.89  28 2.89
  26  0.222  0.889  0.538-  16 2.89  17 2.89  10 2.89  23 2.89  24 2.89  19 2.89  20 2.89  25 2.89
                            27 2.89  28 2.89  35 2.89  29 2.89
  27  0.556  0.889  0.538-  17 2.89  18 2.89  11 2.89  22 2.89  24 2.89  25 2.89  21 2.89  20 2.89
                            26 2.89  29 2.89  30 2.89  36 2.89
  28  0.000  0.000  0.614-  31 2.89  33 2.89  34 2.89  35 2.89  29 2.89  30 2.89  19 2.89  26 2.89
                            25 2.89
  29  0.333  0.000  0.614-  30 2.89  36 2.89  32 2.89  35 2.89  31 2.89  28 2.89  20 2.89  27 2.89
                            26 2.89
  30  0.667  0.000  0.614-  29 2.89  32 2.89  33 2.89  34 2.89  36 2.89  28 2.89  21 2.89  25 2.89
                            27 2.89
  31  0.000  0.333  0.614-  34 2.89  36 2.89  28 2.89  29 2.89  32 2.89  33 2.89  20 2.89  22 2.89
                            19 2.89
  32  0.333  0.333  0.614-  35 2.89  33 2.89  30 2.89  34 2.89  29 2.89  31 2.89  21 2.89  23 2.89
                            20 2.89
  33  0.667  0.333  0.614-  35 2.89  36 2.89  32 2.89  30 2.89  28 2.89  31 2.89  19 2.89  21 2.89
                            24 2.89
  34  0.000  0.667  0.614-  31 2.89  32 2.89  28 2.89  30 2.89  35 2.89  36 2.89  22 2.89  23 2.89
                            25 2.89
  35  0.333  0.667  0.614-  32 2.89  33 2.89  36 2.89  29 2.89  28 2.89  34 2.89  23 2.89  24 2.89
                            26 2.89
  36  0.667  0.667  0.614-  33 2.89  35 2.89  29 2.89  31 2.89  30 2.89  34 2.89  24 2.89  22 2.89
                            27 2.89
 
  LATTYP: Found a hexagonal cell.
 ALAT       =     8.6655936034
 C/A-ratio  =     3.5860702649
  
  Lattice vectors:
  
 A1 = (  -4.3327968017,  -7.5046241995,   0.0000000000)
 A2 = (   8.6655936034,   0.0000000000,   0.0000000000)
 A3 = (   0.0000000000,   0.0000000000,  31.0754275489)


Analysis of symmetry for initial positions (statically):
=====================================================================
 Subroutine PRICEL returns following result:
 
  LATTYP: Found a hexagonal cell.
 ALAT       =     2.8885312011
 C/A-ratio  =    10.7582107947
  
  Lattice vectors:
  
 A1 = (  -1.4442656006,  -2.5015413998,   0.0000000000)
 A2 = (   2.8885312011,   0.0000000000,   0.0000000000)
 A3 = (   0.0000000000,   0.0000000000,  31.0754275489)
 
   9 primitive cells build up your supercell.
 

 Routine SETGRP: Setting up the symmetry group for a 
 hexagonal supercell.


 Subroutine GETGRP returns: Found 12 space group operations
 (whereof 12 operations were pure point group operations)
 out of a pool of 24 trial point group operations.


The static configuration has the point symmetry D_3d.


Analysis of symmetry for dynamics (positions and initial velocities):
=====================================================================
 Subroutine PRICEL returns following result:
 
  LATTYP: Found a hexagonal cell.
 ALAT       =     2.8885312011
 C/A-ratio  =    10.7582107947
  
  Lattice vectors:
  
 A1 = (  -1.4442656006,  -2.5015413998,   0.0000000000)
 A2 = (   2.8885312011,   0.0000000000,   0.0000000000)
 A3 = (   0.0000000000,   0.0000000000,  31.0754275489)
 
   9 primitive cells build up your supercell.
 

 Routine SETGRP: Setting up the symmetry group for a 
 hexagonal supercell.


 Subroutine GETGRP returns: Found 12 space group operations
 (whereof 12 operations were pure point group operations)
 out of a pool of 24 trial point group operations.


The dynamic configuration has the point symmetry D_3d.


Analysis of constrained symmetry for selective dynamics:
=====================================================================
 Subroutine PRICEL returns following result:
 
  LATTYP: Found a hexagonal cell.
 ALAT       =     2.8885312011
 C/A-ratio  =    10.7582107947
  
  Lattice vectors:
  
 A1 = (  -1.4442656006,  -2.5015413998,   0.0000000000)
 A2 = (   2.8885312011,   0.0000000000,   0.0000000000)
 A3 = (   0.0000000000,   0.0000000000,  31.0754275489)
 
   9 primitive cells build up your supercell.
 

 Routine SETGRP: Setting up the symmetry group for a 
 hexagonal supercell.


 Subroutine GETGRP returns: Found  6 space group operations
 (whereof  6 operations were pure point group operations)
 out of a pool of 24 trial point group operations.


The constrained configuration has the point symmetry C_3v.


 Subroutine INISYM returns: Found  6 space group operations
 (whereof  6 operations are pure point group operations),
 and found     9 'primitive' translations


----------------------------------------------------------------------------------------

                                     Primitive cell                                     

  volume of cell :     224.5442

  direct lattice vectors                    reciprocal lattice vectors
    -1.444265601 -2.501541400  0.000000000     0.000000000 -0.399753528  0.000000000
     2.888531201  0.000000000  0.000000000     0.346196710 -0.199876764  0.000000000
     0.000000000  0.000000000 31.075427549    -0.000000000  0.000000000  0.032179766

  length of vectors
     2.888531201  2.888531201 31.075427549     0.399753528  0.399753528  0.032179766

  position of ions in fractional coordinates (direct lattice)
     0.000000000  0.000000000  0.386157197
     0.666666667  0.333333333  0.462052399
     0.333333333  0.666666667  0.537947601
     0.000000000  0.000000000  0.613842803

  ion indices of the primitive-cell ions
   primitive index   ion index
                 1           1
                 2          10
                 3          25
                 4          28

----------------------------------------------------------------------------------------

 
 
 KPOINTS: Automatic mesh                          

Automatic generation of k-mesh.
 Grid dimensions read from file:
 generate k-points for:    4    4    1

 Generating k-lattice:

  Cartesian coordinates                     Fractional coordinates (reciprocal lattice)
     0.028849726 -0.016656397  0.000000000     0.250000000 -0.000000000  0.000000000
     0.000000000  0.033312794  0.000000000     0.000000000  0.250000000  0.000000000
     0.000000000  0.000000000  0.032179766     0.000000000  0.000000000  1.000000000

  Length of vectors
     0.033312794  0.033312794  0.032179766

  Shift w.r.t. Gamma in fractional coordinates (k-lattice)
     0.000000000  0.000000000  0.000000000

 
 Subroutine IBZKPT returns following result:
 ===========================================
 
 Found      4 irreducible k-points:
 
 Following reciprocal coordinates:
            Coordinates               Weight
  0.000000  0.000000  0.000000      1.000000
  0.250000  0.000000  0.000000      6.000000
  0.500000  0.000000  0.000000      3.000000
  0.500000  0.250000  0.000000      6.000000
 
 Following cartesian coordinates:
            Coordinates               Weight
  0.000000  0.000000  0.000000      1.000000
  0.028850 -0.016656  0.000000      6.000000
  0.057699 -0.033313  0.000000      3.000000
  0.057699  0.000000  0.000000      6.000000
 


--------------------------------------------------------------------------------------------------------




 Dimension of arrays:
   k-points           NKPTS =      4   k-points in BZ     NKDIM =      4   number of bands    NBANDS=    237
   number of dos      NEDOS =    301   number of ions     NIONS =     36
   non local maximal  LDIM  =      6   non local SUM 2l+1 LMDIM =     18
   total plane-waves  NPLWV = 373248
   max r-space proj   IRMAX =   2275   max aug-charges    IRDMAX=   9280
   dimension x,y,z NGX =    48 NGY =   48 NGZ =  162
   dimension x,y,z NGXF=    96 NGYF=   96 NGZF=  324
   support grid    NGXF=    96 NGYF=   96 NGZF=  324
   ions per type =              36
   NGX,Y,Z   is equivalent  to a cutoff of   9.21,  9.21,  8.67 a.u.
   NGXF,Y,Z  is equivalent  to a cutoff of  18.42, 18.42, 17.33 a.u.

 SYSTEM =  Cu-Ag alloy CO adsorption (RPBE, matches
 POSCAR =  Ag(111) clean slab                      

 Startparameter for this run:
   NWRITE =      2    write-flag & timer
   PREC   = normal    normal or accurate (medium, high low for compatibility)
   ISTART =      0    job   : 0-new  1-cont  2-samecut
   ICHARG =      2    charge: 1-file 2-atom 10-const
   ISPIN  =      1    spin polarized calculation?
   LNONCOLLINEAR =      F non collinear calculations
   LSORBIT =      F    spin-orbit coupling
   INIWAV =      1    electr: 0-lowe 1-rand  2-diag
   LASPH  =      F    aspherical Exc in radial PAW
 Electronic Relaxation 1
   ENCUT  =  450.0 eV  33.07 Ry    5.75 a.u.  14.99 14.99 53.75*2*pi/ulx,y,z
   ENINI  =  450.0     initial cutoff
   ENAUG  =  412.5 eV  augmentation charge cutoff
   NELM   =    200;   NELMIN=  2; NELMDL= -5     # of ELM steps 
   EDIFF  = 0.1E-05   stopping-criterion for ELM
   LREAL  =      T    real-space projection
   NLSPLINE    = F    spline interpolate recip. space projectors
   LCOMPAT=      F    compatible to vasp.4.4
   GGA_COMPAT  = T    GGA compatible to vasp.4.4-vasp.4.6
   LMAXPAW     = -100 max onsite density
   LMAXMIX     =    2 max onsite mixed and CHGCAR
   VOSKOWN=      0    Vosko Wilk Nusair interpolation
   ROPT   =   -0.00050
 Ionic relaxation
   EDIFFG = -.3E-01   stopping-criterion for IOM
   NSW    =    200    number of steps for IOM
   NBLOCK =      1;   KBLOCK =    200    inner block; outer block 
   IBRION =      2    ionic relax: 0-MD 1-quasi-New 2-CG
   NFREE  =      1    steps in history (QN), initial steepest desc. (CG)
   ISIF   =      2    stress and relaxation
   IWAVPR =     11    prediction:  0-non 1-charg 2-wave 3-comb
   ISYM   =      2    0-nonsym 1-usesym 2-fastsym
   LCORR  =      T    Harris-Foulkes like correction to forces

   POTIM  = 0.5000    time-step for ionic-motion
   TEIN   =    0.0    initial temperature
   TEBEG  =    0.0;   TEEND  =   0.0 temperature during run
   SMASS  =  -3.00    Nose mass-parameter (am)
   estimated Nose-frequenzy (Omega)   =  0.10E-29 period in steps = 0.13E+47 mass=  -0.172E-26a.u.
   SCALEE = 1.0000    scale energy and forces
   NPACO  =    256;   APACO  = 10.0  distance and # of slots for P.C.
   PSTRESS=    0.0 pullay stress

  Mass of Ions in am
   POMASS = 107.87
  Ionic Valenz
   ZVAL   =  11.00
  Atomic Wigner-Seitz radii
   RWIGS  =  -1.00
  virtual crystal weights 
   VCA    =   1.00
   NELECT =     396.0000    total number of electrons
   NUPDOWN=      -1.0000    fix difference up-down

 DOS related values:
   EMIN   =  10.00;   EMAX   =-10.00  energy-range for DOS
   EFERMI =   0.00;   METHOD = LEGACY      
   ISMEAR =     0;   SIGMA  =   0.10  broadening in eV -4-tet -1-fermi 0-gaus
   EFERMI_NEDOS =   21; number of points for ismear=-14 and -15

 Electronic relaxation 2 (details)
   IALGO  =     38    algorithm
   LDIAG  =      T    sub-space diagonalisation (order eigenvalues)
   LSUBROT=      F    optimize rotation matrix (better conditioning)
   LROBUST=      F    robust break criterion during scf (extrapolated energy error)
   ISEARCH=      0    line search for conjugate gradient (0, 1=use gradient)
   TURBO    =      0    0=normal 1=particle mesh
   IRESTART =      0    0=no restart 2=restart with 2 vectors
   NREBOOT  =      0    no. of reboots
   NMIN     =      0    reboot dimension
   EREF     =   0.00    reference energy to select bands
   IMIX   =      4    mixing-type and parameters
     AMIX     =   0.40;   BMIX     =  1.00
     AMIX_MAG =   1.60;   BMIX_MAG =  1.00
     AMIN     =   0.10
     WC   =   100.;   INIMIX=   1;  MIXPRE=   1;  MAXMIX= -45

 Intra band minimization:
   WEIMIN = 0.0010     energy-eigenvalue tresh-hold
   EBREAK =  0.11E-08  absolut break condition
   DEPER  =   0.30     relativ break condition  

   TIME   =   0.40     timestep for ELM

  volume/ion in A,a.u.               =      56.14       378.82
  Fermi-wavevector in a.u.,A,eV,Ry     =   0.950879  1.796900 12.301983  0.904170
  Thomas-Fermi vector in A             =   2.079297
 
 Write flags
   LWAVE        =      F    write WAVECAR
   LDOWNSAMPLE  =      F    k-point downsampling of WAVECAR
   LCHARG       =      F    write CHGCAR
   LVTOT        =      F    write LOCPOT, total local potential
   LVHAR        =      F    write LOCPOT, Hartree potential only
   WRT_POTENTIAL= false  ! write potential to hdf5 file
   LELF         =      F    write electronic localiz. function (ELF)
   LORBIT       =     11    0 simple, 1 ext, 2 COOP (PROOUT), +10 PAW based schemes


 Python interface
   PLUGINS active      =      F    recompile with -DPLUGINS to activate
 
 Dipole corrections
   LMONO      =      F    monopole corrections only (constant potential shift)
   LDIPOL     =      F    correct potential (dipole corrections)
   IDIPOL     =      0    1-x, 2-y, 3-z, 4-all directions 
   EPSILON    =  1.0000000 bulk dielectric constant
   LVACPOTAV  =      F  vacuum potentials using an averaging scheme for the charge density
   VACPOTFLAT =  0.1000000 required flatness to determine vacuum potential
 
Coulomb truncation method
  LTRUNCATE          =      F  Coulomb kernel truncation to be used

 
 Exchange correlation treatment:
   GGA     = RP    functional components
   XC_C    = 1    coefficients multiplying the functional components
   LIBXC   =     F    Libxc                    
   VOSKOWN =     0    Vosko Wilk Nusair interpolation
   LHFCALC =     F    Hartree Fock is set to
   LHFONE  =     F    Hartree Fock one center treatment
   AEXX    =    0.0000 exact exchange contribution

 Parameters of functionals:
   RP:
     No parameter
 
 Van der Waals corrections
   IVDW    =     0    specifies the selected vdW correction

 Linear response parameters
   LEPSILON=     F    determine dielectric tensor
   LRPA    =     F    only Hartree local field effects (RPA)
   LNABLA  =     F    use nabla operator in PAW spheres
   LVEL    =     F    velocity operator in full k-point grid
   CSHIFT  =0.1000    complex shift for real part using Kramers Kronig
   OMEGAMAX=  -1.0    maximum frequency
   DEG_THRESHOLD= 0.2000000E-02 threshold for treating states as degnerate
   RTIME   =   -0.100 relaxation time in fs
  (WPLASMAI=    0.000 imaginary part of plasma frequency in eV, 0.658/RTIME)
   DFIELD  = 0.0000000 0.0000000 0.0000000 field for delta impulse in time
 
  Optional k-point grid parameters
   LKPOINTS_OPT  =     F    use optional k-point grid
   KPOINTS_OPT_MODE=     1    mode for optional k-point grid
 
 Orbital magnetization related:
   ORBITALMAG=     F  switch on orbital magnetization
   LCHIMAG   =     F  perturbation theory with respect to B field
   DQ        =  0.001000  dq finite difference perturbation B field
   LLRAUG    =     F  two centre corrections for induced B field
   LBONE     =     F  B-component reconstruction in AE one-centre
   LVGVCALC  =     T  calculate vGv susceptibility
   LVGVAPPL  =     F  apply vGv susceptibility instead of pGv for G=0

 Random number generation:
   RANDOM_GENERATOR = DEFAULT
   PCG_SEED         = not used


--------------------------------------------------------------------------------------------------------


 conjugate gradient relaxation of ions
   using selective dynamics as specified on POSCAR
   WARNING: If single coordinates had been selected the selection of coordinates
            is made according to the corresponding   d i r e c t   coordinates!
            Don't support selection of single cartesian coordinates -- sorry ... !
 charge density and potential will be updated during run
 non-spin polarized calculation
 Variant of blocked Davidson
 Davidson routine will perform the subspace rotation
 perform sub-space diagonalisation
    after iterative eigenvector-optimisation
 modified Broyden-mixing scheme, WC =      100.0
 initial mixing is a Kerker type mixing with AMIX =  0.4000 and BMIX =      1.0000
 Hartree-type preconditioning will be used
 using additional bands            39
 real space projection scheme for non local part
 use partial core corrections
 calculate Harris-corrections to forces 
   (improved forces if not selfconsistent)
 use gradient corrections 
 use of overlap-Matrix (Vanderbilt PP)
 Gauss-broadening in eV      SIGMA  =   0.10


--------------------------------------------------------------------------------------------------------


  energy-cutoff  :      450.00
  volume of cell :     2020.90
      direct lattice vectors                 reciprocal lattice vectors
     8.665593603  0.000000000  0.000000000     0.115398903 -0.066625588  0.000000000
     4.332796802  7.504624199  0.000000000     0.000000000  0.133251176  0.000000000
     0.000000000  0.000000000 31.075427549     0.000000000  0.000000000  0.032179766

  length of vectors
     8.665593603  8.665593603 31.075427549     0.133251176  0.133251176  0.032179766


 
 k-points in units of 2pi/SCALE and weight: Automatic mesh                          
   0.00000000  0.00000000  0.00000000       0.063
   0.02884973 -0.01665640  0.00000000       0.375
   0.05769945 -0.03331279  0.00000000       0.188
   0.05769945  0.00000000  0.00000000       0.375
 
 k-points in reciprocal lattice and weights: Automatic mesh                          
   0.00000000  0.00000000  0.00000000       0.063
   0.25000000  0.00000000  0.00000000       0.375
   0.50000000  0.00000000  0.00000000       0.188
   0.50000000  0.25000000  0.00000000       0.375
 
 position of ions in fractional coordinates (direct lattice) 
   0.00000000  0.00000000  0.38615720
   0.33333333  0.00000000  0.38615720
   0.66666667  0.00000000  0.38615720
   0.00000000  0.33333333  0.38615720
   0.33333333  0.33333333  0.38615720
   0.66666667  0.33333333  0.38615720
   0.00000000  0.66666667  0.38615720
   0.33333333  0.66666667  0.38615720
   0.66666667  0.66666667  0.38615720
   0.11111111  0.11111111  0.46205240
   0.44444444  0.11111111  0.46205240
   0.77777778  0.11111111  0.46205240
   0.11111111  0.44444444  0.46205240
   0.44444444  0.44444444  0.46205240
   0.77777778  0.44444444  0.46205240
   0.11111111  0.77777778  0.46205240
   0.44444444  0.77777778  0.46205240
   0.77777778  0.77777778  0.46205240
   0.88888889  0.22222222  0.53794760
   0.22222222  0.22222222  0.53794760
   0.55555556  0.22222222  0.53794760
   0.88888889  0.55555556  0.53794760
   0.22222222  0.55555556  0.53794760
   0.55555556  0.55555556  0.53794760
   0.88888889  0.88888889  0.53794760
   0.22222222  0.88888889  0.53794760
   0.55555556  0.88888889  0.53794760
   0.00000000  0.00000000  0.61384280
   0.33333333  0.00000000  0.61384280
   0.66666667  0.00000000  0.61384280
   0.00000000  0.33333333  0.61384280
   0.33333333  0.33333333  0.61384280
   0.66666667  0.33333333  0.61384280
   0.00000000  0.66666667  0.61384280
   0.33333333  0.66666667  0.61384280
   0.66666667  0.66666667  0.61384280
 
 position of ions in cartesian coordinates  (Angst):
   0.00000000  0.00000000 12.00000000
   2.88853120  0.00000000 12.00000000
   5.77706240  0.00000000 12.00000000
   1.44426560  2.50154140 12.00000000
   4.33279680  2.50154140 12.00000000
   7.22132800  2.50154140 12.00000000
   2.88853120  5.00308280 12.00000000
   5.77706240  5.00308280 12.00000000
   8.66559360  5.00308280 12.00000000
   1.44426560  0.83384713 14.35847585
   4.33279680  0.83384713 14.35847585
   7.22132800  0.83384713 14.35847585
   2.88853120  3.33538853 14.35847585
   5.77706240  3.33538853 14.35847585
   8.66559360  3.33538853 14.35847585
   4.33279680  5.83692993 14.35847585
   7.22132800  5.83692993 14.35847585
  10.10985920  5.83692993 14.35847585
   8.66559360  1.66769427 16.71695170
   2.88853120  1.66769427 16.71695170
   5.77706240  1.66769427 16.71695170
  10.10985920  4.16923567 16.71695170
   4.33279680  4.16923567 16.71695170
   7.22132800  4.16923567 16.71695170
  11.55412480  6.67077707 16.71695170
   5.77706240  6.67077707 16.71695170
   8.66559360  6.67077707 16.71695170
   0.00000000  0.00000000 19.07542755
   2.88853120  0.00000000 19.07542755
   5.77706240  0.00000000 19.07542755
   1.44426560  2.50154140 19.07542755
   4.33279680  2.50154140 19.07542755
   7.22132800  2.50154140 19.07542755
   2.88853120  5.00308280 19.07542755
   5.77706240  5.00308280 19.07542755
   8.66559360  5.00308280 19.07542755
 


--------------------------------------------------------------------------------------------------------


 k-point     1 :   0.0000 0.0000 0.0000  plane waves:   43673
 k-point     2 :   0.2500 0.0000 0.0000  plane waves:   43764
 k-point     3 :   0.5000 0.0000 0.0000  plane waves:   43840
 k-point     4 :   0.5000 0.2500 0.0000  plane waves:   43855

 maximum and minimum number of plane-waves per node :     43855    43673

 maximum number of plane-waves:     43855
 maximum index in each direction: 
   IXMAX=   14   IYMAX=   14   IZMAX=   53
   IXMIN=  -15   IYMIN=  -15   IZMIN=  -53


 serial   3D FFT for wavefunctions
 parallel 3D FFT for charge:
    minimum data exchange during FFTs selected (reduces bandwidth)


 total amount of memory used by VASP MPI-rank0   980258. kBytes
=======================================================================

   base                                    :      30000. kBytes
   nonlr-proj                              :      13615. kBytes
   fftplans                                :     102180. kBytes
   grid                                    :     158883. kBytes
   one-center                              :        559. kBytes
   wavefun                                 :     675021. kBytes
 
     INWAV:  cpu time      0.0002: real time      0.0003
 Broyden mixing: mesh for mixing (old mesh)
   NGX = 29   NGY = 29   NGZ =107
  (NGX  = 96   NGY  = 96   NGZ  =324)
  gives a total of  89987 points

 initial charge density was supplied:
 charge density of overlapping atoms calculated
 number of electron     396.0000000 magnetization 
 keeping initial charge density in first step


--------------------------------------------------------------------------------------------------------


 Maximum index for non-local projection operator          2163
 Maximum index for augmentation-charges          8825 (set IRDMAX)


--------------------------------------------------------------------------------------------------------


 First call to EWALD:  gamma=   0.140
 Maximum number of real-space cells   4x   4x   1
 Maximum number of reciprocal cells   2x   2x   6

    FEWALD:  cpu time      0.0606: real time      0.0608


--------------------------------------- Ionic step        1  -------------------------------------------




--------------------------------------- Iteration      1(   1)  ---------------------------------------


    POTLOK:  cpu time      0.0283: real time      0.0284
    SETDIJ:  cpu time      0.0444: real time      0.0446
     EDDAV:  cpu time      1.3759: real time      1.3873
       DOS:  cpu time      0.0012: real time      0.0012
    --------------------------------------------
      LOOP:  cpu time      1.4498: real time      1.4615

 eigenvalue-minimisations  :  1912
 total energy-change (2. order) : 0.2413365E+04  (-0.1622734E+05)
 number of electron     396.0000000 magnetization 
 augmentation part      396.0000000 magnetization 

 Free energy of the ion-electron system (eV)
  ---------------------------------------------------
  alpha Z        PSCENC =       545.47493925
  Ewald energy   TEWEN  =    246324.55330828
  -Hartree energ DENC   =   -283868.10974009
  -exchange      EXHF   =         0.00000000
  -V(xc)+E(xc)   XCENC  =      -404.97634124
  PAW double counting   =     36155.16388377   -34459.00294609
  entropy T*S    EENTRO =        -0.08569304
  eigenvalues    EBANDS =       799.06014012
  atomic energy  EATOM  =     37321.28782131
  Solvation  Ediel_sol  =         0.00000000
  ---------------------------------------------------
  free energy    TOTEN  =      2413.36537226 eV

  energy without entropy =     2413.45106530  energy(sigma->0) =     2413.40821878


--------------------------------------------------------------------------------------------------------




--------------------------------------- Iteration      1(   2)  ---------------------------------------


     EDDAV:  cpu time      1.3248: real time      1.3319
       DOS:  cpu time      0.0014: real time      0.0014
    --------------------------------------------
      LOOP:  cpu time      1.3263: real time      1.3334

 eigenvalue-minimisations  :  2126
 total energy-change (2. order) :-0.2375799E+04  (-0.2232996E+04)
 number of electron     396.0000000 magnetization 
 augmentation part      396.0000000 magnetization 

 Free energy of the ion-electron system (eV)
  ---------------------------------------------------
  alpha Z        PSCENC =       545.47493925
  Ewald energy   TEWEN  =    246324.55330828
  -Hartree energ DENC   =   -283868.10974009
  -exchange      EXHF   =         0.00000000
  -V(xc)+E(xc)   XCENC  =      -404.97634124
  PAW double counting   =     36155.16388377   -34459.00294609
  entropy T*S    EENTRO =        -0.03228616
  eigenvalues    EBANDS =     -1576.79262012
  atomic energy  EATOM  =     37321.28782131
  Solvation  Ediel_sol  =         0.00000000
  ---------------------------------------------------
  free energy    TOTEN  =        37.56601891 eV

  energy without entropy =       37.59830507  energy(sigma->0) =       37.58216199


--------------------------------------------------------------------------------------------------------




--------------------------------------- Iteration      1(   3)  ---------------------------------------


     EDDAV:  cpu time      1.2924: real time      1.3094
       DOS:  cpu time      0.0015: real time      0.0015
    --------------------------------------------
      LOOP:  cpu time      1.2939: real time      1.3109

 eigenvalue-minimisations  :  2072
 total energy-change (2. order) :-0.1154363E+03  (-0.1124848E+03)
 number of electron     396.0000000 magnetization 
 augmentation part      396.0000000 magnetization 

 Free energy of the ion-electron system (eV)
  ---------------------------------------------------
  alpha Z        PSCENC =       545.47493925
  Ewald energy   TEWEN  =    246324.55330828
  -Hartree energ DENC   =   -283868.10974009
  -exchange      EXHF   =         0.00000000
  -V(xc)+E(xc)   XCENC  =      -404.97634124
  PAW double counting   =     36155.16388377   -34459.00294609
  entropy T*S    EENTRO =        -0.02886668
  eigenvalues    EBANDS =     -1692.23235646
  atomic energy  EATOM  =     37321.28782131
  Solvation  Ediel_sol  =         0.00000000
  ---------------------------------------------------
  free energy    TOTEN  =       -77.87029796 eV

  energy without entropy =      -77.84143128  energy(sigma->0) =      -77.85586462


--------------------------------------------------------------------------------------------------------




--------------------------------------- Iteration      1(   4)  ---------------------------------------


     EDDAV:  cpu time      1.3191: real time      1.3266
       DOS:  cpu time      0.0016: real time      0.0016
    --------------------------------------------
      LOOP:  cpu time      1.3207: real time      1.3281

 eigenvalue-minimisations  :  2128
 total energy-change (2. order) :-0.2030111E+01  (-0.2023126E+01)
 number of electron     396.0000000 magnetization 
 augmentation part      396.0000000 magnetization 

 Free energy of the ion-electron system (eV)
  ---------------------------------------------------
  alpha Z        PSCENC =       545.47493925
  Ewald energy   TEWEN  =    246324.55330828
  -Hartree energ DENC   =   -283868.10974009
  -exchange      EXHF   =         0.00000000
  -V(xc)+E(xc)   XCENC  =      -404.97634124
  PAW double counting   =     36155.16388377   -34459.00294609
  entropy T*S    EENTRO =        -0.02969279
  eigenvalues    EBANDS =     -1694.26164175
  atomic energy  EATOM  =     37321.28782131
  Solvation  Ediel_sol  =         0.00000000
  ---------------------------------------------------
  free energy    TOTEN  =       -79.90040936 eV

  energy without entropy =      -79.87071657  energy(sigma->0) =      -79.88556296


--------------------------------------------------------------------------------------------------------




--------------------------------------- Iteration      1(   5)  ---------------------------------------


     EDDAV:  cpu time      1.3727: real time      1.3802
       DOS:  cpu time      0.0015: real time      0.0015
    CHARGE:  cpu time      0.2304: real time      0.2314
    MIXING:  cpu time      0.0515: real time      0.0517
    --------------------------------------------
      LOOP:  cpu time      1.6561: real time      1.6648

 eigenvalue-minimisations  :  2208
 total energy-change (2. order) :-0.4513539E-01  (-0.4508140E-01)
 number of electron     395.9999854 magnetization 
 augmentation part      184.6758526 magnetization 

 Broyden mixing:
  rms(total) = 0.27353E+01    rms(broyden)= 0.27353E+01
  rms(prec ) = 0.27749E+01
  weight for this iteration     100.00

 Free energy of the ion-electron system (eV)
  ---------------------------------------------------
  alpha Z        PSCENC =       545.47493925
  Ewald energy   TEWEN  =    246324.55330828
  -Hartree energ DENC   =   -283868.10974009
  -exchange      EXHF   =         0.00000000
  -V(xc)+E(xc)   XCENC  =      -404.97634124
  PAW double counting   =     36155.16388377   -34459.00294609
  entropy T*S    EENTRO =        -0.02968368
  eigenvalues    EBANDS =     -1694.30678626
  atomic energy  EATOM  =     37321.28782131
  Solvation  Ediel_sol  =         0.00000000
  ---------------------------------------------------
  free energy    TOTEN  =       -79.94554475 eV

  energy without entropy =      -79.91586107  energy(sigma->0) =      -79.93070291


--------------------------------------------------------------------------------------------------------




--------------------------------------- Iteration      1(   6)  ---------------------------------------


    POTLOK:  cpu time      0.0154: real time      0.0156
    SETDIJ:  cpu time      0.0444: real time      0.0445
     EDDAV:  cpu time      1.2669: real time      1.2735
       DOS:  cpu time      0.0015: real time      0.0015
    CHARGE:  cpu time      0.2270: real time      0.2279
    MIXING:  cpu time      0.0533: real time      0.0535
    --------------------------------------------
      LOOP:  cpu time      1.6084: real time      1.6167

 eigenvalue-minimisations  :  1984
 total energy-change (2. order) : 0.5911724E+01  (-0.2140118E+01)
 number of electron     395.9999851 magnetization 
 augmentation part      189.1299906 magnetization 

 Broyden mixing:
  rms(total) = 0.18320E+01    rms(broyden)= 0.18320E+01
  rms(prec ) = 0.18345E+01
  weight for this iteration     100.00

 eigenvalues of (default mixing * dielectric matrix)
  average eigenvalue GAMMA=   1.4290
  1.4290

 Free energy of the ion-electron system (eV)
  ---------------------------------------------------
  alpha Z        PSCENC =       545.47493925
  Ewald energy   TEWEN  =    246324.55330828
  -Hartree energ DENC   =   -283659.47749133
  -exchange      EXHF   =         0.00000000
  -V(xc)+E(xc)   XCENC  =      -414.45061225
  PAW double counting   =     37762.12192817   -36099.55697996
  entropy T*S    EENTRO =        -0.04616600
  eigenvalues    EBANDS =     -1853.94056821
  atomic energy  EATOM  =     37321.28782131
  Solvation  Ediel_sol  =         0.00000000
  ---------------------------------------------------
  free energy    TOTEN  =       -74.03382075 eV

  energy without entropy =      -73.98765475  energy(sigma->0) =      -74.01073775


--------------------------------------------------------------------------------------------------------




--------------------------------------- Iteration      1(   7)  ---------------------------------------


    POTLOK:  cpu time      0.0159: real time      0.0160
    SETDIJ:  cpu time      0.0443: real time      0.0445
     EDDAV:  cpu time      1.2535: real time      1.2600
       DOS:  cpu time      0.0015: real time      0.0015
    CHARGE:  cpu time      0.2339: real time      0.2349
    MIXING:  cpu time      0.0539: real time      0.0542
    --------------------------------------------
      LOOP:  cpu time      1.6030: real time      1.6112

 eigenvalue-minimisations  :  1976
 total energy-change (2. order) : 0.2034012E+00  (-0.8161959E-01)
 number of electron     395.9999850 magnetization 
 augmentation part      189.7686305 magnetization 

 Broyden mixing:
  rms(total) = 0.90896E+00    rms(broyden)= 0.90895E+00
  rms(prec ) = 0.90947E+00
  weight for this iteration     100.00

 eigenvalues of (default mixing * dielectric matrix)
  average eigenvalue GAMMA=   1.8323
  1.0746  2.5900

 Free energy of the ion-electron system (eV)
  ---------------------------------------------------
  alpha Z        PSCENC =       545.47493925
  Ewald energy   TEWEN  =    246324.55330828
  -Hartree energ DENC   =   -283615.84223189
  -exchange      EXHF   =         0.00000000
  -V(xc)+E(xc)   XCENC  =      -416.84136745
  PAW double counting   =     39058.58896278   -37426.00273375
  entropy T*S    EENTRO =        -0.04650224
  eigenvalues    EBANDS =     -1865.00261582
  atomic energy  EATOM  =     37321.28782131
  Solvation  Ediel_sol  =         0.00000000
  ---------------------------------------------------
  free energy    TOTEN  =       -73.83041954 eV

  energy without entropy =      -73.78391729  energy(sigma->0) =      -73.80716842


--------------------------------------------------------------------------------------------------------




--------------------------------------- Iteration      1(   8)  ---------------------------------------


    POTLOK:  cpu time      0.0154: real time      0.0155
    SETDIJ:  cpu time      0.0445: real time      0.0447
     EDDAV:  cpu time      1.2731: real time      1.2799
       DOS:  cpu time      0.0015: real time      0.0015
    CHARGE:  cpu time      0.2283: real time      0.2293
    MIXING:  cpu time      0.0543: real time      0.0545
    --------------------------------------------
      LOOP:  cpu time      1.6171: real time      1.6254

 eigenvalue-minimisations  :  2009
 total energy-change (2. order) : 0.3841609E-01  (-0.8842815E-02)
 number of electron     395.9999850 magnetization 
 augmentation part      189.7385940 magnetization 

 Broyden mixing:
  rms(total) = 0.53371E-01    rms(broyden)= 0.53366E-01
  rms(prec ) = 0.55504E-01
  weight for this iteration     100.00

 eigenvalues of (default mixing * dielectric matrix)
  average eigenvalue GAMMA=   1.4978
  2.5265  1.1067  0.8603

 Free energy of the ion-electron system (eV)
  ---------------------------------------------------
  alpha Z        PSCENC =       545.47493925
  Ewald energy   TEWEN  =    246324.55330828
  -Hartree energ DENC   =   -283618.26282355
  -exchange      EXHF   =         0.00000000
  -V(xc)+E(xc)   XCENC  =      -417.83730187
  PAW double counting   =     40242.14262928   -38633.84231684
  entropy T*S    EENTRO =        -0.04872725
  eigenvalues    EBANDS =     -1837.25953206
  atomic energy  EATOM  =     37321.28782131
  Solvation  Ediel_sol  =         0.00000000
  ---------------------------------------------------
  free energy    TOTEN  =       -73.79200345 eV

  energy without entropy =      -73.74327620  energy(sigma->0) =      -73.76763983


--------------------------------------------------------------------------------------------------------




--------------------------------------- Iteration      1(   9)  ---------------------------------------


    POTLOK:  cpu time      0.0172: real time      0.0174
    SETDIJ:  cpu time      0.0454: real time      0.0457
     EDDAV:  cpu time      1.2646: real time      1.2711
       DOS:  cpu time      0.0016: real time      0.0016
    CHARGE:  cpu time      0.2269: real time      0.2278
    MIXING:  cpu time      0.0553: real time      0.0555
    --------------------------------------------
      LOOP:  cpu time      1.6109: real time      1.6191

 eigenvalue-minimisations  :  1992
 total energy-change (2. order) : 0.3453399E-02  (-0.7161101E-03)
 number of electron     395.9999850 magnetization 
 augmentation part      189.7358795 magnetization 

 Broyden mixing:
  rms(total) = 0.14905E-01    rms(broyden)= 0.14904E-01
  rms(prec ) = 0.16165E-01
  weight for this iteration     100.00

 eigenvalues of (default mixing * dielectric matrix)
  average eigenvalue GAMMA=   1.5908
  2.5259  0.8701  1.0838  1.8835

 Free energy of the ion-electron system (eV)
  ---------------------------------------------------
  alpha Z        PSCENC =       545.47493925
  Ewald energy   TEWEN  =    246324.55330828
  -Hartree energ DENC   =   -283616.79254567
  -exchange      EXHF   =         0.00000000
  -V(xc)+E(xc)   XCENC  =      -417.76278493
  PAW double counting   =     40234.40908223   -38625.07108992
  entropy T*S    EENTRO =        -0.04780581
  eigenvalues    EBANDS =     -1839.83947478
  atomic energy  EATOM  =     37321.28782131
  Solvation  Ediel_sol  =         0.00000000
  ---------------------------------------------------
  free energy    TOTEN  =       -73.78855005 eV

  energy without entropy =      -73.74074424  energy(sigma->0) =      -73.76464715


--------------------------------------------------------------------------------------------------------




--------------------------------------- Iteration      1(  10)  ---------------------------------------


    POTLOK:  cpu time      0.0156: real time      0.0159
    SETDIJ:  cpu time      0.0441: real time      0.0442
     EDDAV:  cpu time      1.2768: real time      1.2832
       DOS:  cpu time      0.0015: real time      0.0015
    CHARGE:  cpu time      0.2274: real time      0.2284
    MIXING:  cpu time      0.0579: real time      0.0581
    --------------------------------------------
      LOOP:  cpu time      1.6233: real time      1.6314

 eigenvalue-minimisations  :  2014
 total energy-change (2. order) : 0.6232962E-03  (-0.2542885E-03)
 number of electron     395.9999851 magnetization 
 augmentation part      189.7286618 magnetization 

 Broyden mixing:
  rms(total) = 0.93508E-02    rms(broyden)= 0.93505E-02
  rms(prec ) = 0.10555E-01
  weight for this iteration     100.00

 eigenvalues of (default mixing * dielectric matrix)
  average eigenvalue GAMMA=   1.5163
  2.5493  2.3780  1.1021  0.8938  0.6584

 Free energy of the ion-electron system (eV)
  ---------------------------------------------------
  alpha Z        PSCENC =       545.47493925
  Ewald energy   TEWEN  =    246324.55330828
  -Hartree energ DENC   =   -283623.58061655
  -exchange      EXHF   =         0.00000000
  -V(xc)+E(xc)   XCENC  =      -417.73672619
  PAW double counting   =     40268.75404951   -38659.06616758
  entropy T*S    EENTRO =        -0.04803404
  eigenvalues    EBANDS =     -1833.42650073
  atomic energy  EATOM  =     37321.28782131
  Solvation  Ediel_sol  =         0.00000000
  ---------------------------------------------------
  free energy    TOTEN  =       -73.78792675 eV

  energy without entropy =      -73.73989272  energy(sigma->0) =      -73.76390973


--------------------------------------------------------------------------------------------------------




--------------------------------------- Iteration      1(  11)  ---------------------------------------


    POTLOK:  cpu time      0.0165: real time      0.0167
    SETDIJ:  cpu time      0.0446: real time      0.0448
     EDDAV:  cpu time      1.2709: real time      1.2776
       DOS:  cpu time      0.0015: real time      0.0015
    CHARGE:  cpu time      0.2213: real time      0.2222
    MIXING:  cpu time      0.0565: real time      0.0567
    --------------------------------------------
      LOOP:  cpu time      1.6114: real time      1.6196

 eigenvalue-minimisations  :  2003
 total energy-change (2. order) : 0.2216440E-03  (-0.1085879E-03)
 number of electron     395.9999851 magnetization 
 augmentation part      189.7313780 magnetization 

 Broyden mixing:
  rms(total) = 0.71092E-02    rms(broyden)= 0.71089E-02
  rms(prec ) = 0.10141E-01
  weight for this iteration     100.00

 eigenvalues of (default mixing * dielectric matrix)
  average eigenvalue GAMMA=   1.4078
  2.7038  2.4930  1.1182  0.9332  0.7439  0.4548

 Free energy of the ion-electron system (eV)
  ---------------------------------------------------
  alpha Z        PSCENC =       545.47493925
  Ewald energy   TEWEN  =    246324.55330828
  -Hartree energ DENC   =   -283628.76723289
  -exchange      EXHF   =         0.00000000
  -V(xc)+E(xc)   XCENC  =      -417.73088127
  PAW double counting   =     40293.83391575   -38683.89961664
  entropy T*S    EENTRO =        -0.04815674
  eigenvalues    EBANDS =     -1828.49180215
  atomic energy  EATOM  =     37321.28782131
  Solvation  Ediel_sol  =         0.00000000
  ---------------------------------------------------
  free energy    TOTEN  =       -73.78770511 eV

  energy without entropy =      -73.73954837  energy(sigma->0) =      -73.76362674


--------------------------------------------------------------------------------------------------------




--------------------------------------- Iteration      1(  12)  ---------------------------------------


    POTLOK:  cpu time      0.0149: real time      0.0152
    SETDIJ:  cpu time      0.0437: real time      0.0438
     EDDAV:  cpu time      1.2420: real time      1.2481
       DOS:  cpu time      0.0015: real time      0.0015
    CHARGE:  cpu time      0.2229: real time      0.2238
    MIXING:  cpu time      0.0584: real time      0.0587
    --------------------------------------------
      LOOP:  cpu time      1.5834: real time      1.5912

 eigenvalue-minimisations  :  1974
 total energy-change (2. order) : 0.2415939E-03  (-0.7801119E-04)
 number of electron     395.9999851 magnetization 
 augmentation part      189.7337944 magnetization 

 Broyden mixing:
  rms(total) = 0.26360E-02    rms(broyden)= 0.26356E-02
  rms(prec ) = 0.37521E-02
  weight for this iteration     100.00

 eigenvalues of (default mixing * dielectric matrix)
  average eigenvalue GAMMA=   1.3944
  2.7636  2.4779  1.1628  1.1628  0.9902  0.8598  0.3435

 Free energy of the ion-electron system (eV)
  ---------------------------------------------------
  alpha Z        PSCENC =       545.47493925
  Ewald energy   TEWEN  =    246324.55330828
  -Hartree energ DENC   =   -283631.47765771
  -exchange      EXHF   =         0.00000000
  -V(xc)+E(xc)   XCENC  =      -417.72675898
  PAW double counting   =     40304.24216523   -38694.20101496
  entropy T*S    EENTRO =        -0.04818852
  eigenvalues    EBANDS =     -1825.89207740
  atomic energy  EATOM  =     37321.28782131
  Solvation  Ediel_sol  =         0.00000000
  ---------------------------------------------------
  free energy    TOTEN  =       -73.78746352 eV

  energy without entropy =      -73.73927499  energy(sigma->0) =      -73.76336925


--------------------------------------------------------------------------------------------------------




--------------------------------------- Iteration      1(  13)  ---------------------------------------


    POTLOK:  cpu time      0.0155: real time      0.0158
    SETDIJ:  cpu time      0.0440: real time      0.0441
     EDDAV:  cpu time      1.2499: real time      1.2563
       DOS:  cpu time      0.0015: real time      0.0015
    CHARGE:  cpu time      0.2242: real time      0.2251
    MIXING:  cpu time      0.0600: real time      0.0603
    --------------------------------------------
      LOOP:  cpu time      1.5951: real time      1.6032

 eigenvalue-minimisations  :  1966
 total energy-change (2. order) :-0.1314876E-03  (-0.2014583E-04)
 number of electron     395.9999851 magnetization 
 augmentation part      189.7348648 magnetization 

 Broyden mixing:
  rms(total) = 0.17774E-02    rms(broyden)= 0.17773E-02
  rms(prec ) = 0.24292E-02
  weight for this iteration     100.00

 eigenvalues of (default mixing * dielectric matrix)
  average eigenvalue GAMMA=   1.4465
  2.9644  2.4590  2.0152  1.1481  0.9689  0.8435  0.8435  0.3296

 Free energy of the ion-electron system (eV)
  ---------------------------------------------------
  alpha Z        PSCENC =       545.47493925
  Ewald energy   TEWEN  =    246324.55330828
  -Hartree energ DENC   =   -283633.53022975
  -exchange      EXHF   =         0.00000000
  -V(xc)+E(xc)   XCENC  =      -417.71911865
  PAW double counting   =     40304.95754832   -38694.90314813
  entropy T*S    EENTRO =        -0.04816864
  eigenvalues    EBANDS =     -1823.86054697
  atomic energy  EATOM  =     37321.28782131
  Solvation  Ediel_sol  =         0.00000000
  ---------------------------------------------------
  free energy    TOTEN  =       -73.78759500 eV

  energy without entropy =      -73.73942636  energy(sigma->0) =      -73.76351068


--------------------------------------------------------------------------------------------------------




--------------------------------------- Iteration      1(  14)  ---------------------------------------


    POTLOK:  cpu time      0.0152: real time      0.0154
    SETDIJ:  cpu time      0.0440: real time      0.0442
     EDDAV:  cpu time      1.2492: real time      1.2558
       DOS:  cpu time      0.0015: real time      0.0015
    CHARGE:  cpu time      0.2217: real time      0.2227
    MIXING:  cpu time      0.0617: real time      0.0620
    --------------------------------------------
      LOOP:  cpu time      1.5935: real time      1.6016

 eigenvalue-minimisations  :  1977
 total energy-change (2. order) :-0.3902490E-03  (-0.1189926E-04)
 number of electron     395.9999851 magnetization 
 augmentation part      189.7336475 magnetization 

 Broyden mixing:
  rms(total) = 0.14138E-02    rms(broyden)= 0.14138E-02
  rms(prec ) = 0.19423E-02
  weight for this iteration     100.00

 eigenvalues of (default mixing * dielectric matrix)
  average eigenvalue GAMMA=   1.5523
  3.7778  2.5533  2.3264  1.1768  1.1768  0.9747  0.8248  0.8248  0.3350

 Free energy of the ion-electron system (eV)
  ---------------------------------------------------
  alpha Z        PSCENC =       545.47493925
  Ewald energy   TEWEN  =    246324.55330828
  -Hartree energ DENC   =   -283637.24678067
  -exchange      EXHF   =         0.00000000
  -V(xc)+E(xc)   XCENC  =      -417.70951542
  PAW double counting   =     40305.13053692   -38695.06838733
  entropy T*S    EENTRO =        -0.04823812
  eigenvalues    EBANDS =     -1820.16166946
  atomic energy  EATOM  =     37321.28782131
  Solvation  Ediel_sol  =         0.00000000
  ---------------------------------------------------
  free energy    TOTEN  =       -73.78798525 eV

  energy without entropy =      -73.73974713  energy(sigma->0) =      -73.76386619


--------------------------------------------------------------------------------------------------------




--------------------------------------- Iteration      1(  15)  ---------------------------------------


    POTLOK:  cpu time      0.0148: real time      0.0150
    SETDIJ:  cpu time      0.0444: real time      0.0445
     EDDAV:  cpu time      1.2197: real time      1.2260
       DOS:  cpu time      0.0016: real time      0.0016
    CHARGE:  cpu time      0.2328: real time      0.2338
    MIXING:  cpu time      0.0625: real time      0.0627
    --------------------------------------------
      LOOP:  cpu time      1.5758: real time      1.5837

 eigenvalue-minimisations  :  1921
 total energy-change (2. order) :-0.2347680E-03  (-0.4224278E-05)
 number of electron     395.9999851 magnetization 
 augmentation part      189.7337085 magnetization 

 Broyden mixing:
  rms(total) = 0.90821E-03    rms(broyden)= 0.90817E-03
  rms(prec ) = 0.10994E-02
  weight for this iteration     100.00

 eigenvalues of (default mixing * dielectric matrix)
  average eigenvalue GAMMA=   1.6553
  4.4654  2.8280  2.4930  1.4650  1.1423  1.0414  1.0414  0.8703  0.8703  0.3358

 Free energy of the ion-electron system (eV)
  ---------------------------------------------------
  alpha Z        PSCENC =       545.47493925
  Ewald energy   TEWEN  =    246324.55330828
  -Hartree energ DENC   =   -283639.19100550
  -exchange      EXHF   =         0.00000000
  -V(xc)+E(xc)   XCENC  =      -417.70565231
  PAW double counting   =     40304.72857665   -38694.65693676
  entropy T*S    EENTRO =        -0.04824899
  eigenvalues    EBANDS =     -1818.23102193
  atomic energy  EATOM  =     37321.28782131
  Solvation  Ediel_sol  =         0.00000000
  ---------------------------------------------------
  free energy    TOTEN  =       -73.78822002 eV

  energy without entropy =      -73.73997103  energy(sigma->0) =      -73.76409552


--------------------------------------------------------------------------------------------------------




--------------------------------------- Iteration      1(  16)  ---------------------------------------


    POTLOK:  cpu time      0.0149: real time      0.0155
    SETDIJ:  cpu time      0.0440: real time      0.0441
     EDDAV:  cpu time      1.2265: real time      1.2329
       DOS:  cpu time      0.0016: real time      0.0016
    CHARGE:  cpu time      0.2240: real time      0.2251
    MIXING:  cpu time      0.0635: real time      0.0637
    --------------------------------------------
      LOOP:  cpu time      1.5744: real time      1.5829

 eigenvalue-minimisations  :  1932
 total energy-change (2. order) :-0.2276827E-03  (-0.2881424E-05)
 number of electron     395.9999851 magnetization 
 augmentation part      189.7340480 magnetization 

 Broyden mixing:
  rms(total) = 0.40673E-03    rms(broyden)= 0.40671E-03
  rms(prec ) = 0.52827E-03
  weight for this iteration     100.00

 eigenvalues of (default mixing * dielectric matrix)
  average eigenvalue GAMMA=   1.6821
  4.8380  2.8292  2.5576  1.8607  1.3039  1.1553  0.9416  0.9416  0.8695  0.8695
  0.3358

 Free energy of the ion-electron system (eV)
  ---------------------------------------------------
  alpha Z        PSCENC =       545.47493925
  Ewald energy   TEWEN  =    246324.55330828
  -Hartree energ DENC   =   -283640.59031837
  -exchange      EXHF   =         0.00000000
  -V(xc)+E(xc)   XCENC  =      -417.70391773
  PAW double counting   =     40303.20024983   -38693.14031371
  entropy T*S    EENTRO =        -0.04824671
  eigenvalues    EBANDS =     -1816.82196983
  atomic energy  EATOM  =     37321.28782131
  Solvation  Ediel_sol  =         0.00000000
  ---------------------------------------------------
  free energy    TOTEN  =       -73.78844770 eV

  energy without entropy =      -73.74020099  energy(sigma->0) =      -73.76432435


--------------------------------------------------------------------------------------------------------




--------------------------------------- Iteration      1(  17)  ---------------------------------------


    POTLOK:  cpu time      0.0154: real time      0.0156
    SETDIJ:  cpu time      0.0440: real time      0.0442
     EDDAV:  cpu time      0.9414: real time      0.9463
       DOS:  cpu time      0.0015: real time      0.0015
    CHARGE:  cpu time      0.2258: real time      0.2268
    MIXING:  cpu time      0.0658: real time      0.0660
    --------------------------------------------
      LOOP:  cpu time      1.2939: real time      1.3004

 eigenvalue-minimisations  :  1299
 total energy-change (2. order) :-0.1056604E-03  (-0.4241535E-06)
 number of electron     395.9999851 magnetization 
 augmentation part      189.7341357 magnetization 

 Broyden mixing:
  rms(total) = 0.20679E-03    rms(broyden)= 0.20678E-03
  rms(prec ) = 0.33546E-03
  weight for this iteration     100.00

 eigenvalues of (default mixing * dielectric matrix)
  average eigenvalue GAMMA=   1.7627
  5.7556  3.1777  2.5491  2.2417  1.4069  1.1640  0.9320  0.9320  0.9543  0.8514
  0.8514  0.3358

 Free energy of the ion-electron system (eV)
  ---------------------------------------------------
  alpha Z        PSCENC =       545.47493925
  Ewald energy   TEWEN  =    246324.55330828
  -Hartree energ DENC   =   -283641.09307332
  -exchange      EXHF   =         0.00000000
  -V(xc)+E(xc)   XCENC  =      -417.70374710
  PAW double counting   =     40303.57289668   -38693.51395494
  entropy T*S    EENTRO =        -0.04824507
  eigenvalues    EBANDS =     -1816.31849844
  atomic energy  EATOM  =     37321.28782131
  Solvation  Ediel_sol  =         0.00000000
  ---------------------------------------------------
  free energy    TOTEN  =       -73.78855336 eV

  energy without entropy =      -73.74030829  energy(sigma->0) =      -73.76443083


--------------------------------------------------------------------------------------------------------




--------------------------------------- Iteration      1(  18)  ---------------------------------------


    POTLOK:  cpu time      0.0151: real time      0.0154
    SETDIJ:  cpu time      0.0441: real time      0.0442
     EDDAV:  cpu time      0.9289: real time      0.9336
       DOS:  cpu time      0.0015: real time      0.0015
    CHARGE:  cpu time      0.2259: real time      0.2271
    MIXING:  cpu time      0.0681: real time      0.0683
    --------------------------------------------
      LOOP:  cpu time      1.2836: real time      1.2902

 eigenvalue-minimisations  :  1271
 total energy-change (2. order) :-0.1141847E-03  (-0.7728851E-06)
 number of electron     395.9999851 magnetization 
 augmentation part      189.7340098 magnetization 

 Broyden mixing:
  rms(total) = 0.16048E-03    rms(broyden)= 0.16045E-03
  rms(prec ) = 0.21539E-03
  weight for this iteration     100.00

 eigenvalues of (default mixing * dielectric matrix)
  average eigenvalue GAMMA=   1.8393
  6.0691  3.2842  2.6473  2.6473  1.6001  1.6001  1.1405  0.9640  0.9640  0.9422
  0.8578  0.8578  0.3358

 Free energy of the ion-electron system (eV)
  ---------------------------------------------------
  alpha Z        PSCENC =       545.47493925
  Ewald energy   TEWEN  =    246324.55330828
  -Hartree energ DENC   =   -283641.78899272
  -exchange      EXHF   =         0.00000000
  -V(xc)+E(xc)   XCENC  =      -417.70313192
  PAW double counting   =     40303.52521208   -38693.46824716
  entropy T*S    EENTRO =        -0.04824517
  eigenvalues    EBANDS =     -1815.62133148
  atomic energy  EATOM  =     37321.28782131
  Solvation  Ediel_sol  =         0.00000000
  ---------------------------------------------------
  free energy    TOTEN  =       -73.78866755 eV

  energy without entropy =      -73.74042237  energy(sigma->0) =      -73.76454496


--------------------------------------------------------------------------------------------------------




--------------------------------------- Iteration      1(  19)  ---------------------------------------


    POTLOK:  cpu time      0.0151: real time      0.0153
    SETDIJ:  cpu time      0.0440: real time      0.0442
     EDDAV:  cpu time      0.9041: real time      0.9088
       DOS:  cpu time      0.0016: real time      0.0016
    CHARGE:  cpu time      0.2249: real time      0.2260
    MIXING:  cpu time      0.0708: real time      0.0711
    --------------------------------------------
      LOOP:  cpu time      1.2605: real time      1.2670

 eigenvalue-minimisations  :  1196
 total energy-change (2. order) :-0.7785758E-04  (-0.2436918E-06)
 number of electron     395.9999851 magnetization 
 augmentation part      189.7342097 magnetization 

 Broyden mixing:
  rms(total) = 0.23035E-03    rms(broyden)= 0.23032E-03
  rms(prec ) = 0.24301E-03
  weight for this iteration     100.00

 eigenvalues of (default mixing * dielectric matrix)
  average eigenvalue GAMMA=   1.9009
  6.9977  3.7680  2.8151  2.4841  2.0624  1.4328  0.9581  0.9581  1.0554  1.0554
  0.9659  0.8622  0.8622  0.3358

 Free energy of the ion-electron system (eV)
  ---------------------------------------------------
  alpha Z        PSCENC =       545.47493925
  Ewald energy   TEWEN  =    246324.55330828
  -Hartree energ DENC   =   -283642.17063423
  -exchange      EXHF   =         0.00000000
  -V(xc)+E(xc)   XCENC  =      -417.70314441
  PAW double counting   =     40303.80508697   -38693.74044935
  entropy T*S    EENTRO =        -0.04824656
  eigenvalues    EBANDS =     -1815.24742666
  atomic energy  EATOM  =     37321.28782131
  Solvation  Ediel_sol  =         0.00000000
  ---------------------------------------------------
  free energy    TOTEN  =       -73.78874541 eV

  energy without entropy =      -73.74049885  energy(sigma->0) =      -73.76462213


--------------------------------------------------------------------------------------------------------




--------------------------------------- Iteration      1(  20)  ---------------------------------------


    POTLOK:  cpu time      0.0149: real time      0.0152
    SETDIJ:  cpu time      0.0445: real time      0.0446
     EDDAV:  cpu time      0.8947: real time      0.8994
       DOS:  cpu time      0.0015: real time      0.0015
    CHARGE:  cpu time      0.2240: real time      0.2250
    MIXING:  cpu time      0.0707: real time      0.0710
    --------------------------------------------
      LOOP:  cpu time      1.2504: real time      1.2572

 eigenvalue-minimisations  :  1191
 total energy-change (2. order) :-0.2540927E-04  (-0.6564278E-07)
 number of electron     395.9999851 magnetization 
 augmentation part      189.7340101 magnetization 

 Broyden mixing:
  rms(total) = 0.68736E-04    rms(broyden)= 0.68701E-04
  rms(prec ) = 0.81707E-04
  weight for this iteration     100.00

 eigenvalues of (default mixing * dielectric matrix)
  average eigenvalue GAMMA=   1.9327
  7.3261  4.3128  2.8190  2.5529  2.0188  1.6780  0.3358  1.2115  0.9762  0.9762
  1.0620  1.0620  0.8559  0.8559  0.9465

 Free energy of the ion-electron system (eV)
  ---------------------------------------------------
  alpha Z        PSCENC =       545.47493925
  Ewald energy   TEWEN  =    246324.55330828
  -Hartree energ DENC   =   -283642.32544379
  -exchange      EXHF   =         0.00000000
  -V(xc)+E(xc)   XCENC  =      -417.70294709
  PAW double counting   =     40303.85033210   -38693.78965969
  entropy T*S    EENTRO =        -0.04824655
  eigenvalues    EBANDS =     -1815.08887463
  atomic energy  EATOM  =     37321.28782131
  Solvation  Ediel_sol  =         0.00000000
  ---------------------------------------------------
  free energy    TOTEN  =       -73.78877081 eV

  energy without entropy =      -73.74052426  energy(sigma->0) =      -73.76464754


--------------------------------------------------------------------------------------------------------




--------------------------------------- Iteration      1(  21)  ---------------------------------------


    POTLOK:  cpu time      0.0150: real time      0.0155
    SETDIJ:  cpu time      0.0440: real time      0.0442
     EDDAV:  cpu time      0.8781: real time      0.8825
       DOS:  cpu time      0.0015: real time      0.0015
    CHARGE:  cpu time      0.2215: real time      0.2225
    MIXING:  cpu time      0.0740: real time      0.0744
    --------------------------------------------
      LOOP:  cpu time      1.2342: real time      1.2402

 eigenvalue-minimisations  :  1156
 total energy-change (2. order) :-0.1669832E-04  (-0.2304966E-07)
 number of electron     395.9999851 magnetization 
 augmentation part      189.7340814 magnetization 

 Broyden mixing:
  rms(total) = 0.50509E-04    rms(broyden)= 0.50480E-04
  rms(prec ) = 0.56218E-04
  weight for this iteration     100.00

 eigenvalues of (default mixing * dielectric matrix)
  average eigenvalue GAMMA=   2.0527
  7.9420  5.3180  2.8593  2.5391  2.5391  2.3380  0.3358  0.9512  0.9512  1.2030
  1.1324  1.0697  1.0697  0.8554  0.8554  0.8846

 Free energy of the ion-electron system (eV)
  ---------------------------------------------------
  alpha Z        PSCENC =       545.47493925
  Ewald energy   TEWEN  =    246324.55330828
  -Hartree energ DENC   =   -283642.39096459
  -exchange      EXHF   =         0.00000000
  -V(xc)+E(xc)   XCENC  =      -417.70303358
  PAW double counting   =     40303.79622880   -38693.73488726
  entropy T*S    EENTRO =        -0.04824681
  eigenvalues    EBANDS =     -1815.02395290
  atomic energy  EATOM  =     37321.28782131
  Solvation  Ediel_sol  =         0.00000000
  ---------------------------------------------------
  free energy    TOTEN  =       -73.78878751 eV

  energy without entropy =      -73.74054071  energy(sigma->0) =      -73.76466411


--------------------------------------------------------------------------------------------------------




--------------------------------------- Iteration      1(  22)  ---------------------------------------


    POTLOK:  cpu time      0.0152: real time      0.0154
    SETDIJ:  cpu time      0.0449: real time      0.0450
     EDDAV:  cpu time      0.8819: real time      0.8866
       DOS:  cpu time      0.0015: real time      0.0015
    CHARGE:  cpu time      0.2253: real time      0.2263
    MIXING:  cpu time      0.0756: real time      0.0759
    --------------------------------------------
      LOOP:  cpu time      1.2443: real time      1.2506

 eigenvalue-minimisations  :  1153
 total energy-change (2. order) :-0.1100427E-04  (-0.1747090E-07)
 number of electron     395.9999851 magnetization 
 augmentation part      189.7340565 magnetization 

 Broyden mixing:
  rms(total) = 0.18422E-04    rms(broyden)= 0.18407E-04
  rms(prec ) = 0.20728E-04
  weight for this iteration     100.00

 eigenvalues of (default mixing * dielectric matrix)
  average eigenvalue GAMMA=   2.1043
  8.7483  5.6406  3.2859  2.7984  2.4546  1.7862  1.7862  0.3358  1.1736  1.1736
  0.9482  0.9482  1.0441  1.0441  0.8568  0.8568  0.8912

 Free energy of the ion-electron system (eV)
  ---------------------------------------------------
  alpha Z        PSCENC =       545.47493925
  Ewald energy   TEWEN  =    246324.55330828
  -Hartree energ DENC   =   -283642.42686034
  -exchange      EXHF   =         0.00000000
  -V(xc)+E(xc)   XCENC  =      -417.70304546
  PAW double counting   =     40303.76515321   -38693.70507596
  entropy T*S    EENTRO =        -0.04824678
  eigenvalues    EBANDS =     -1814.98679202
  atomic energy  EATOM  =     37321.28782131
  Solvation  Ediel_sol  =         0.00000000
  ---------------------------------------------------
  free energy    TOTEN  =       -73.78879852 eV

  energy without entropy =      -73.74055173  energy(sigma->0) =      -73.76467513


--------------------------------------------------------------------------------------------------------




--------------------------------------- Iteration      1(  23)  ---------------------------------------


    POTLOK:  cpu time      0.0150: real time      0.0155
    SETDIJ:  cpu time      0.0445: real time      0.0446
     EDDAV:  cpu time      0.8915: real time      0.8962
       DOS:  cpu time      0.0015: real time      0.0015
    CHARGE:  cpu time      0.2231: real time      0.2242
    MIXING:  cpu time      0.0793: real time      0.0797
    --------------------------------------------
      LOOP:  cpu time      1.2549: real time      1.2618

 eigenvalue-minimisations  :  1163
 total energy-change (2. order) :-0.2672197E-05  (-0.3734944E-08)
 number of electron     395.9999851 magnetization 
 augmentation part      189.7340546 magnetization 

 Broyden mixing:
  rms(total) = 0.12279E-04    rms(broyden)= 0.12277E-04
  rms(prec ) = 0.13239E-04
  weight for this iteration     100.00

 eigenvalues of (default mixing * dielectric matrix)
  average eigenvalue GAMMA=   2.1760
  8.9837  6.1867  3.3965  3.1358  2.4680  2.4680  2.1306  0.3358  1.1340  1.1340
  1.1974  1.1548  0.9504  0.9504  0.8550  0.8550  0.9593  0.8727

 Free energy of the ion-electron system (eV)
  ---------------------------------------------------
  alpha Z        PSCENC =       545.47493925
  Ewald energy   TEWEN  =    246324.55330828
  -Hartree energ DENC   =   -283642.43897334
  -exchange      EXHF   =         0.00000000
  -V(xc)+E(xc)   XCENC  =      -417.70299948
  PAW double counting   =     40303.73088383   -38693.67022823
  entropy T*S    EENTRO =        -0.04824698
  eigenvalues    EBANDS =     -1814.97530581
  atomic energy  EATOM  =     37321.28782131
  Solvation  Ediel_sol  =         0.00000000
  ---------------------------------------------------
  free energy    TOTEN  =       -73.78880119 eV

  energy without entropy =      -73.74055421  energy(sigma->0) =      -73.76467770


--------------------------------------------------------------------------------------------------------




--------------------------------------- Iteration      1(  24)  ---------------------------------------


    POTLOK:  cpu time      0.0154: real time      0.0156
    SETDIJ:  cpu time      0.0445: real time      0.0447
     EDDAV:  cpu time      0.8686: real time      0.8733
       DOS:  cpu time      0.0015: real time      0.0015
    CHARGE:  cpu time      0.2261: real time      0.2271
    MIXING:  cpu time      0.0821: real time      0.0824
    --------------------------------------------
      LOOP:  cpu time      1.2382: real time      1.2446

 eigenvalue-minimisations  :  1134
 total energy-change (2. order) :-0.1100532E-05  (-0.1610448E-08)
 number of electron     395.9999851 magnetization 
 augmentation part      189.7340527 magnetization 

 Broyden mixing:
  rms(total) = 0.43115E-05    rms(broyden)= 0.43037E-05
  rms(prec ) = 0.46304E-05
  weight for this iteration     100.00

 eigenvalues of (default mixing * dielectric matrix)
  average eigenvalue GAMMA=   2.1684
  9.1126  6.3247  3.7356  3.0914  2.5027  2.3690  2.1374  1.6231  0.3358  0.9506
  0.9506  1.1784  1.1498  1.0954  1.0954  0.8543  0.8543  0.9621  0.8755

 Free energy of the ion-electron system (eV)
  ---------------------------------------------------
  alpha Z        PSCENC =       545.47493925
  Ewald energy   TEWEN  =    246324.55330828
  -Hartree energ DENC   =   -283642.44326788
  -exchange      EXHF   =         0.00000000
  -V(xc)+E(xc)   XCENC  =      -417.70300207
  PAW double counting   =     40303.73048353   -38693.66993507
  entropy T*S    EENTRO =        -0.04824689
  eigenvalues    EBANDS =     -1814.97090274
  atomic energy  EATOM  =     37321.28782131
  Solvation  Ediel_sol  =         0.00000000
  ---------------------------------------------------
  free energy    TOTEN  =       -73.78880229 eV

  energy without entropy =      -73.74055540  energy(sigma->0) =      -73.76467885


--------------------------------------------------------------------------------------------------------




--------------------------------------- Iteration      1(  25)  ---------------------------------------


    POTLOK:  cpu time      0.0154: real time      0.0251
    SETDIJ:  cpu time      0.0436: real time      0.0438
     EDDAV:  cpu time      0.8568: real time      0.8613
       DOS:  cpu time      0.0015: real time      0.0015
    --------------------------------------------
      LOOP:  cpu time      0.9173: real time      0.9317

 eigenvalue-minimisations  :  1099
 total energy-change (2. order) :-0.1160661E-06  (-0.2938421E-09)
 number of electron     395.9999851 magnetization 
 augmentation part      189.7340527 magnetization 

 Free energy of the ion-electron system (eV)
  ---------------------------------------------------
  alpha Z        PSCENC =       545.47493925
  Ewald energy   TEWEN  =    246324.55330828
[...]
 -0.000  -0.000  -0.006  -0.000  -0.000  -0.000  -0.000  -0.006
 -0.000  -0.000  -0.010  -0.000  -0.000  -0.000  -0.000  -0.009
  0.000  -0.011   0.000  -0.000   0.000   0.000  -0.011   0.000
 -0.000   0.000  -0.013   0.000  -0.000  -0.000   0.000  -0.013
  0.000  -0.000   0.000  -0.011   0.000   0.000  -0.000   0.000
  0.000  -0.014   0.000  -0.000   0.000   0.000  -0.013   0.000
 -0.000   0.000  -0.016   0.000  -0.000  -0.000   0.000  -0.015
  0.000  -0.000   0.000  -0.014   0.000   0.000  -0.000   0.000
 total augmentation occupancy for first ion, spin component:            1
  3.239  -0.000   0.000  -0.016  -0.000  -1.248  -0.000  -0.000  -0.020  -0.000   0.000  -0.000  -0.000  -0.000  -0.016   0.000
 -0.000   3.022   0.000   0.000  -0.016   0.000  -0.906   0.000  -0.000  -0.020   0.000   0.000  -0.126   0.000  -0.000   0.003
  0.000   0.000   3.355   0.000  -0.000  -0.000   0.000  -1.262  -0.000   0.000   0.496  -0.082   0.000  -0.165  -0.000  -0.000
 -0.016   0.000   0.000   3.022  -0.000  -0.020   0.000  -0.000  -0.906   0.000   0.000  -0.000  -0.000   0.000  -0.126   0.000
 -0.000  -0.016  -0.000  -0.000   3.239   0.000  -0.020   0.000   0.000  -1.248  -0.000   0.000  -0.016   0.000  -0.000   0.001
 -1.248  -0.000  -0.000  -0.020  -0.000   1.204   0.000   0.000   0.049  -0.000  -0.000   0.000   0.000   0.000   0.018   0.000
  0.000  -0.906   0.000   0.000  -0.020   0.000   0.760  -0.000  -0.000   0.049   0.000  -0.000   0.126  -0.000  -0.000  -0.009
 -0.000   0.000  -1.262   0.000   0.000   0.000  -0.000   1.134   0.000  -0.000  -0.454   0.080  -0.000   0.184   0.000   0.000
 -0.020   0.000  -0.000  -0.906   0.000   0.049  -0.000  -0.000   0.760  -0.000   0.000   0.000   0.000   0.000   0.126  -0.000
 -0.000  -0.020   0.000   0.000  -1.248   0.000   0.049  -0.000   0.000   1.204   0.000  -0.000   0.018  -0.000  -0.000  -0.002
 -0.000  -0.000   0.496  -0.000  -0.000  -0.000   0.000  -0.454  -0.000   0.000   2.219  -0.412   0.000   0.137   0.000   0.000
  0.000   0.000  -0.082   0.000   0.000   0.000  -0.000   0.080   0.000  -0.000  -0.412   0.092  -0.000  -0.040  -0.000   0.000
 -0.000  -0.126   0.000  -0.000  -0.016   0.000   0.126  -0.000   0.000   0.018  -0.000  -0.000   0.150  -0.000   0.000  -0.009
 -0.000  -0.000  -0.165  -0.000   0.000   0.000  -0.000   0.184  -0.000  -0.000   0.137  -0.040   0.000   0.087   0.000   0.000
 -0.016  -0.000  -0.000  -0.126  -0.000   0.018   0.000  -0.000   0.126   0.000  -0.000   0.000   0.000   0.000   0.150  -0.000
  0.000   0.003  -0.000   0.000   0.001   0.000  -0.009   0.000  -0.000  -0.002  -0.000   0.000  -0.009  -0.000   0.000   0.001
  0.000  -0.000   0.001  -0.000  -0.000  -0.000   0.000  -0.010   0.000   0.000  -0.015   0.004  -0.000  -0.006   0.000   0.000
  0.001   0.000   0.000   0.003   0.000  -0.002  -0.000   0.000  -0.009  -0.000   0.000  -0.000  -0.000   0.000  -0.009   0.000


------------------------ aborting loop because EDIFF is reached ----------------------------------------





 total charge

# of ion       s       p       d       tot
------------------------------------------
    1        0.427   0.221   9.184   9.833
    2        0.427   0.221   9.184   9.833
    3        0.427   0.221   9.184   9.833
    4        0.427   0.221   9.184   9.833
    5        0.427   0.221   9.184   9.833
    6        0.427   0.221   9.184   9.833
    7        0.427   0.221   9.184   9.833
    8        0.427   0.221   9.184   9.833
    9        0.427   0.221   9.184   9.833
   10        0.415   0.279   9.173   9.867
   11        0.415   0.279   9.173   9.867
   12        0.415   0.279   9.173   9.867
   13        0.415   0.279   9.173   9.867
   14        0.415   0.279   9.173   9.867
   15        0.415   0.279   9.173   9.867
   16        0.415   0.279   9.173   9.867
   17        0.415   0.279   9.173   9.867
   18        0.415   0.279   9.173   9.867
   19        0.411   0.265   9.172   9.847
   20        0.411   0.265   9.172   9.847
   21        0.411   0.265   9.172   9.847
   22        0.411   0.265   9.172   9.847
   23        0.411   0.265   9.172   9.847
   24        0.411   0.265   9.172   9.847
   25        0.411   0.265   9.172   9.847
   26        0.411   0.265   9.172   9.847
   27        0.411   0.265   9.172   9.847
   28        0.421   0.207   9.184   9.812
   29        0.421   0.207   9.184   9.812
   30        0.421   0.207   9.184   9.812
   31        0.421   0.207   9.184   9.812
   32        0.421   0.207   9.184   9.812
   33        0.421   0.207   9.184   9.812
   34        0.421   0.207   9.184   9.812
   35        0.421   0.207   9.184   9.812
   36        0.421   0.207   9.184   9.812
--------------------------------------------------
tot         15.071   8.740 330.416 354.227
 
    CHARGE:  cpu time      0.2938: real time      0.2949
    FORLOC:  cpu time      0.0057: real time      0.0057
    FORNL :  cpu time      0.6745: real time      0.6775
    STRESS:  cpu time      1.9528: real time      1.9620
    FORCOR:  cpu time      0.0272: real time      0.0273
    FORHAR:  cpu time      0.0057: real time      0.0057
    MIXING:  cpu time      0.0610: real time      0.0612
    OFIELD:  cpu time      0.0000: real time      0.0000

  FORCE on cell =-STRESS in cart. coord.  units (eV):
  Direction    XX          YY          ZZ          XY          YZ          ZX
  --------------------------------------------------------------------------------------
  Alpha Z   545.47494   545.47494   545.47494
  Ewald  262453.63260262453.63260************    -0.00000    -0.00000     0.00000
  Hartree271836.14364271836.14364************    -0.00000     0.00000     0.00000
  E(xc)   -2092.94568 -2092.94569 -2103.28776     0.00001     0.00000     0.00001
  Local  ************************546474.32835    -0.00002    -0.00003    -0.00005
  n-local  -314.25035  -296.11181  -321.31472     8.73606    -0.46772     0.93349
  augment  3302.83336  3302.83370  3318.95482    -0.00029     0.00008     0.00013
  Kinetic  4902.08539  4903.77104  4936.98741     1.94144     1.11067    -0.04403
  Fock        0.00000     0.00000     0.00000     0.00000     0.00000     0.00000
  -------------------------------------------------------------------------------------
  Total      19.12409    19.12409     6.14026    -0.00000     0.00000     0.00000
  in kB      15.16167    15.16167     4.86802    -0.00000     0.00000     0.00000
  external pressure =       11.73 kB  Pullay stress =        0.00 kB


 VOLUME and BASIS-vectors are now :
 -----------------------------------------------------------------------------
  energy-cutoff  :      450.00
  volume of cell :     2020.90
      direct lattice vectors                 reciprocal lattice vectors
     8.665593603  0.000000000  0.000000000     0.115398903 -0.066625588  0.000000000
     4.332796802  7.504624199  0.000000000     0.000000000  0.133251176  0.000000000
     0.000000000  0.000000000 31.075427549     0.000000000  0.000000000  0.032179766

  length of vectors
     8.665593603  8.665593603 31.075427549     0.133251176  0.133251176  0.032179766


 FORCES acting on ions
    electron-ion (+dipol)            ewald-force                    non-local-force                 convergence-correction
 -----------------------------------------------------------------------------------------------
   0.104E-05 0.601E-06 0.312E+04   -.211E-11 -.129E-11 -.312E+04   -.455E-17 -.130E-17 -.173E+01   -.113E-10 -.699E-11 -.556E-04
   0.104E-05 0.601E-06 0.312E+04   -.275E-10 0.116E-10 -.312E+04   0.239E-17 -.347E-17 -.173E+01   -.120E-10 -.669E-11 -.556E-04
   0.104E-05 0.601E-06 0.312E+04   0.302E-10 -.183E-10 -.312E+04   0.510E-17 0.434E-18 -.173E+01   -.123E-10 -.679E-11 -.556E-04
   0.104E-05 0.601E-06 0.312E+04   -.374E-11 -.295E-10 -.312E+04   -.987E-17 -.651E-18 -.173E+01   -.114E-10 -.712E-11 -.556E-04
   0.104E-05 0.601E-06 0.312E+04   -.291E-10 -.167E-10 -.312E+04   -.542E-17 -.325E-17 -.173E+01   -.122E-10 -.688E-11 -.556E-04
   0.104E-05 0.601E-06 0.312E+04   0.286E-10 -.464E-10 -.312E+04   -.249E-17 0.260E-17 -.173E+01   -.120E-10 -.668E-11 -.556E-04
   0.104E-05 0.601E-06 0.312E+04   -.629E-12 0.352E-10 -.312E+04   -.737E-17 -.629E-17 -.173E+01   -.116E-10 -.718E-11 -.556E-04
   0.104E-05 0.601E-06 0.312E+04   -.260E-10 0.480E-10 -.312E+04   0.618E-17 0.195E-17 -.173E+01   -.119E-10 -.662E-11 -.556E-04
   0.104E-05 0.601E-06 0.312E+04   0.318E-10 0.183E-10 -.312E+04   -.130E-17 0.347E-17 -.173E+01   -.121E-10 -.664E-11 -.556E-04
   0.849E-06 0.490E-06 0.103E+04   -.345E-10 -.199E-10 -.103E+04   0.271E-19 0.678E-19 -.907E-01   0.991E-11 0.560E-11 0.134E-02
   0.849E-06 0.490E-06 0.103E+04   0.230E-10 -.495E-10 -.103E+04   0.110E-17 -.154E-17 -.907E-01   0.944E-11 0.550E-11 0.134E-02
   0.849E-06 0.490E-06 0.103E+04   -.106E-11 -.374E-10 -.103E+04   0.257E-18 0.222E-17 -.907E-01   0.982E-11 0.534E-11 0.134E-02
   0.849E-06 0.490E-06 0.103E+04   -.314E-10 0.445E-10 -.103E+04   -.106E-17 0.191E-17 -.907E-01   0.955E-11 0.572E-11 0.134E-02
   0.849E-06 0.490E-06 0.103E+04   0.261E-10 0.150E-10 -.103E+04   0.190E-18 -.308E-17 -.907E-01   0.948E-11 0.583E-11 0.134E-02
   0.849E-06 0.490E-06 0.103E+04   0.202E-11 0.270E-10 -.103E+04   0.152E-17 0.211E-17 -.907E-01   0.101E-10 0.583E-11 0.134E-02
   0.849E-06 0.490E-06 0.103E+04   -.330E-10 0.179E-10 -.103E+04   0.908E-18 0.669E-17 -.907E-01   0.963E-11 0.557E-11 0.134E-02
   0.849E-06 0.490E-06 0.103E+04   0.245E-10 -.118E-10 -.103E+04   -.248E-17 -.908E-18 -.907E-01   0.977E-11 0.579E-11 0.134E-02
   0.849E-06 0.490E-06 0.103E+04   0.452E-12 0.320E-12 -.103E+04   -.725E-18 0.352E-18 -.907E-01   0.977E-11 0.539E-11 0.134E-02
   -.661E-06 -.381E-06 -.105E+04   0.327E-10 -.174E-10 0.105E+04   0.247E-17 0.686E-18 0.557E+00   -.958E-10 -.549E-10 0.899E-03
   -.660E-06 -.381E-06 -.105E+04   -.216E-12 -.160E-12 0.105E+04   0.226E-17 -.171E-18 0.557E+00   -.958E-10 -.552E-10 0.899E-03
   -.660E-06 -.381E-06 -.105E+04   -.243E-10 0.119E-10 0.105E+04   -.283E-17 -.538E-17 0.557E+00   -.954E-10 -.552E-10 0.899E-03
   -.660E-06 -.381E-06 -.105E+04   0.311E-10 -.440E-10 0.105E+04   0.235E-17 -.322E-17 0.557E+00   -.960E-10 -.552E-10 0.899E-03
   -.660E-06 -.381E-06 -.105E+04   -.183E-11 -.269E-10 0.105E+04   0.217E-17 0.264E-17 0.557E+00   -.957E-10 -.552E-10 0.899E-03
   -.661E-06 -.381E-06 -.105E+04   -.259E-10 -.148E-10 0.105E+04   0.347E-18 -.104E-17 0.557E+00   -.954E-10 -.554E-10 0.899E-03
   -.660E-06 -.381E-06 -.105E+04   0.342E-10 0.197E-10 0.105E+04   0.436E-17 -.181E-18 0.557E+00   -.959E-10 -.552E-10 0.899E-03
   -.660E-06 -.381E-06 -.105E+04   0.129E-11 0.369E-10 0.105E+04   -.283E-17 -.212E-17 0.557E+00   -.956E-10 -.553E-10 0.899E-03
   -.660E-06 -.381E-06 -.105E+04   -.227E-10 0.490E-10 0.105E+04   0.508E-17 -.365E-17 0.557E+00   -.956E-10 -.555E-10 0.899E-03
   -.854E-06 -.493E-06 -.310E+04   0.196E-11 0.101E-11 0.310E+04   -.184E-17 -.195E-17 0.129E+01   0.912E-10 0.527E-10 -.225E-02
   -.854E-06 -.493E-06 -.310E+04   -.298E-10 0.176E-10 0.310E+04   -.152E-17 0.108E-17 0.129E+01   0.910E-10 0.524E-10 -.225E-02
   -.854E-06 -.493E-06 -.310E+04   0.273E-10 -.118E-10 0.310E+04   -.759E-18 -.108E-17 0.129E+01   0.910E-10 0.527E-10 -.225E-02
   -.854E-06 -.493E-06 -.310E+04   0.354E-12 -.345E-10 0.310E+04   -.585E-17 -.434E-18 0.129E+01   0.908E-10 0.525E-10 -.225E-02
   -.854E-06 -.493E-06 -.310E+04   -.314E-10 -.180E-10 0.310E+04   -.531E-17 0.217E-17 0.129E+01   0.912E-10 0.527E-10 -.225E-02
   -.854E-06 -.493E-06 -.310E+04   0.257E-10 -.473E-10 0.310E+04   -.206E-17 -.152E-17 0.129E+01   0.911E-10 0.529E-10 -.225E-02
   -.854E-06 -.493E-06 -.310E+04   0.348E-11 0.293E-10 0.310E+04   -.304E-17 -.239E-17 0.129E+01   0.911E-10 0.525E-10 -.225E-02
   -.854E-06 -.493E-06 -.310E+04   -.283E-10 0.459E-10 0.310E+04   -.217E-17 0.195E-17 0.129E+01   0.913E-10 0.525E-10 -.225E-02
   -.854E-06 -.493E-06 -.310E+04   0.289E-10 0.165E-10 0.310E+04   -.239E-17 0.000E+00 0.129E+01   0.908E-10 0.524E-10 -.225E-02
 -----------------------------------------------------------------------------------------------
   0.339E-05 0.196E-05 0.479E-01   0.240E-13 0.389E-13 0.114E-10   -.292E-16 -.133E-16 0.171E+00   -.608E-10 -.349E-10 -.552E-03
 
 
 POSITION                                       TOTAL-FORCE (eV/Angst)
 -----------------------------------------------------------------------------------
      0.00000      0.00000     12.00000         0.000000     -0.000000     -0.314175
      2.88853      0.00000     12.00000         0.000000     -0.000000     -0.314175
      5.77706      0.00000     12.00000         0.000000      0.000000     -0.314175
      1.44427      2.50154     12.00000        -0.000000      0.000000     -0.314175
      4.33280      2.50154     12.00000        -0.000000      0.000000     -0.314175
      7.22133      2.50154     12.00000         0.000000      0.000000     -0.314175
      2.88853      5.00308     12.00000         0.000000     -0.000000     -0.314175
      5.77706      5.00308     12.00000         0.000000      0.000000     -0.314175
      8.66559      5.00308     12.00000         0.000000     -0.000000     -0.314175
      1.44427      0.83385     14.35848        -0.000000     -0.000000      0.308200
      4.33280      0.83385     14.35848         0.000000      0.000000      0.308200
      7.22133      0.83385     14.35848        -0.000000     -0.000000      0.308200
      2.88853      3.33539     14.35848         0.000000     -0.000000      0.308200
      5.77706      3.33539     14.35848         0.000000      0.000000      0.308200
      8.66559      3.33539     14.35848         0.000000     -0.000000      0.308200
      4.33280      5.83693     14.35848         0.000000     -0.000000      0.308200
      7.22133      5.83693     14.35848        -0.000000      0.000000      0.308200
     10.10986      5.83693     14.35848         0.000000     -0.000000      0.308200
      8.66559      1.66769     16.81892        -0.000000      0.000000     -0.012488
      2.88853      1.66769     16.81892         0.000000      0.000000     -0.012488
      5.77706      1.66769     16.81892         0.000000     -0.000000     -0.012488
     10.10986      4.16924     16.81892         0.000000      0.000000     -0.012488
      4.33280      4.16924     16.81892        -0.000000      0.000000     -0.012488
      7.22133      4.16924     16.81892        -0.000000      0.000000     -0.012488
     11.55412      6.67078     16.81892        -0.000000      0.000000     -0.012488
      5.77706      6.67078     16.81892         0.000000     -0.000000     -0.012488
      8.66559      6.67078     16.81892         0.000000      0.000000     -0.012488
      0.00000      0.00000     19.29435        -0.000000     -0.000000      0.018462
      2.88853      0.00000     19.29435         0.000000     -0.000000      0.018462
      5.77706      0.00000     19.29435        -0.000000     -0.000000      0.018462
     10.10986      2.50154     19.29435        -0.000000     -0.000000      0.018462
      4.33280      2.50154     19.29435        -0.000000      0.000000      0.018462
      7.22133      2.50154     19.29435         0.000000     -0.000000      0.018462
      2.88853      5.00308     19.29435        -0.000000     -0.000000      0.018462
      5.77706      5.00308     19.29435         0.000000     -0.000000      0.018462
      8.66559      5.00308     19.29435        -0.000000     -0.000000      0.018462
 -----------------------------------------------------------------------------------
    total drift:                                0.000003      0.000002      0.217994


--------------------------------------------------------------------------------------------------------



  FREE ENERGIE OF THE ION-ELECTRON SYSTEM (eV)
  ---------------------------------------------------
  free  energy   TOTEN  =       -74.08195834 eV

  energy  without entropy=      -74.04165563  energy(sigma->0) =      -74.06180699
 d Force = 0.2417307E-02[ 0.175E-02, 0.309E-02]  d Energy = 0.3013804E-02-0.596E-03
 d Force = 0.2881273E+03[ 0.288E+03, 0.288E+03]  d Ewald  = 0.2881273E+03-0.487E-04
 


--------------------------------------------------------------------------------------------------------


    POTLOK:  cpu time      0.0680: real time      0.0683


--------------------------------------------------------------------------------------------------------


 Conjugate gradient step on ions:
 trial-energy change:   -0.003014  1 .order   -0.002417   -0.003087   -0.001748
  (g-gl).g = 0.422E-02      g.g   = 0.950E-03  gl.gl    = 0.323E-01
 g(Force)  = 0.950E-03   g(Stress)= 0.000E+00 ortho     =-0.168E-03
 gamma     =   0.13068
 trial     =   3.32465
 opt step  =   4.29844  (harmonic =   7.66276) maximal distance =0.01342294
 next E    =   -74.082229   (d E  =  -0.00328)


--------------------------------------------------------------------------------------------------------


  
 reached required accuracy - stopping structural energy minimisation
     LOOP+:  cpu time     16.8147: real time     16.9041
    4ORBIT:  cpu time      0.0000: real time      0.0000



 total charge

# of ion       s       p       d       tot
------------------------------------------
    1        0.427   0.221   9.184   9.833
    2        0.427   0.221   9.184   9.833
    3        0.427   0.221   9.184   9.833
    4        0.427   0.221   9.184   9.833
    5        0.427   0.221   9.184   9.833
    6        0.427   0.221   9.184   9.833
    7        0.427   0.221   9.184   9.833
    8        0.427   0.221   9.184   9.833
    9        0.427   0.221   9.184   9.833
   10        0.415   0.279   9.173   9.867
   11        0.415   0.279   9.173   9.867
   12        0.415   0.279   9.173   9.867
   13        0.415   0.279   9.173   9.867
   14        0.415   0.279   9.173   9.867
   15        0.415   0.279   9.173   9.867
   16        0.415   0.279   9.173   9.867
   17        0.415   0.279   9.173   9.867
   18        0.415   0.279   9.173   9.867
   19        0.411   0.265   9.172   9.847
   20        0.411   0.265   9.172   9.847
   21        0.411   0.265   9.172   9.847
   22        0.411   0.265   9.172   9.847
   23        0.411   0.265   9.172   9.847
   24        0.411   0.265   9.172   9.847
   25        0.411   0.265   9.172   9.847
   26        0.411   0.265   9.172   9.847
   27        0.411   0.265   9.172   9.847
   28        0.421   0.207   9.184   9.812
   29        0.421   0.207   9.184   9.812
   30        0.421   0.207   9.184   9.812
   31        0.421   0.207   9.184   9.812
   32        0.421   0.207   9.184   9.812
   33        0.421   0.207   9.184   9.812
   34        0.421   0.207   9.184   9.812
   35        0.421   0.207   9.184   9.812
   36        0.421   0.207   9.184   9.812
--------------------------------------------------
tot         15.071   8.740 330.416 354.227
 

 total amount of memory used by VASP MPI-rank0   980258. kBytes
=======================================================================

   base                                    :      30000. kBytes
   nonlr-proj                              :      13615. kBytes
   fftplans                                :     102180. kBytes
   grid                                    :     158883. kBytes
   one-center                              :        559. kBytes
   wavefun                                 :     675021. kBytes
 
  
  
 General timing and accounting informations for this job:
 ========================================================
  
                  Total CPU time used (sec):      243.146
                            User time (sec):      240.271
                          System time (sec):        2.875
                         Elapsed time (sec):      244.715
  
                   Maximum memory used (kb):     2656900.
                   Average memory used (kb):          N/A
  
                          Minor page faults:       556613
                          Major page faults:          102
                 Voluntary context switches:         8139
