PROCAR lm decomposed
# of k-points:    4         # of bands:  237         # of ions:   36

 k-point     1 :    0.00000000 0.00000000 0.00000000     weight = 0.06250000

band     1 # energy   -7.53734359 # occ.  2.00000000
 
ion      s     py     pz     px    dxy    dyz    dz2    dxz  x2-y2    tot
    1  0.009  0.000  0.001  0.000  0.000  0.000  0.000  0.000  0.000  0.010
    2  0.009  0.000  0.001  0.000  0.000  0.000  0.000  0.000  0.000  0.010
    3  0.009  0.000  0.001  0.000  0.000  0.000  0.000  0.000  0.000  0.010
    4  0.009  0.000  0.001  0.000  0.000  0.000  0.000  0.000  0.000  0.010
    5  0.009  0.000  0.001  0.000  0.000  0.000  0.000  0.000  0.000  0.010
    6  0.009  0.000  0.001  0.000  0.000  0.000  0.000  0.000  0.000  0.010
    7  0.009  0.000  0.001  0.000  0.000  0.000  0.000  0.000  0.000  0.010
    8  0.009  0.000  0.001  0.000  0.000  0.000  0.000  0.000  0.000  0.010
    9  0.009  0.000  0.001  0.000  0.000  0.000  0.000  0.000  0.000  0.010
   10  0.026  0.000  0.000  0.000  0.000  0.000  0.001  0.000  0.000  0.026
   11  0.026  0.000  0.000  0.000  0.000  0.000  0.001  0.000  0.000  0.026
   12  0.026  0.000  0.000  0.000  0.000  0.000  0.001  0.000  0.000  0.026
   13  0.026  0.000  0.000  0.000  0.000  0.000  0.001  0.000  0.000  0.026
   14  0.026  0.000  0.000  0.000  0.000  0.000  0.001  0.000  0.000  0.026
   15  0.026  0.000  0.000  0.000  0.000  0.000  0.001  0.000  0.000  0.026
   16  0.026  0.000  0.000  0.000  0.000  0.000  0.001  0.000  0.000  0.026
   17  0.026  0.000  0.000  0.000  0.000  0.000  0.001  0.000  0.000  0.026
   18  0.026  0.000  0.000  0.000  0.000  0.000  0.001  0.000  0.000  0.026
   19  0.020  0.000  0.000  0.000  0.000  0.000  0.000  0.000  0.000  0.020
   20  0.020  0.000  0.000  0.000  0.000  0.000  0.000  0.000  0.000  0.020
   21  0.020  0.000  0.000  0.000  0.000  0.000  0.000  0.000  0.000  0.020
   22  0.020  0.000  0.000  0.000  0.000  0.000  0.000  0.000  0.000  0.020
   23  0.020  0.000  0.000  0.000  0.000  0.000  0.000  0.000  0.000  0.020
   24  0.020  0.000  0.000  0.000  0.000  0.000  0.000  0.000  0.000  0.020
   25  0.020  0.000  0.000  0.000  0.000  0.000  0.000  0.000  0.000  0.020
   26  0.020  0.000  0.000  0.000  0.000  0.000  0.000  0.000  0.000  0.020
   27  0.020  0.000  0.000  0.000  0.000  0.000  0.000  0.000  0.000  0.020
   28  0.005  0.000  0.000  0.000  0.000  0.000  0.000  0.000  0.000  0.005
   29  0.005  0.000  0.000  0.000  0.000  0.000  0.000  0.000  0.000  0.005
   30  0.005  0.000  0.000  0.000  0.000  0.000  0.000  0.000  0.000  0.005
   31  0.005  0.000  0.000  0.000  0.000  0.000  0.000  0.000  0.000  0.005
   32  0.005  0.000  0.000  0.000  0.000  0.000  0.000  0.000  0.000  0.005
   33  0.005  0.000  0.000  0.000  0.000  0.000  0.000  0.000  0.000  0.005
   34  0.005  0.000  0.000  0.000  0.000  0.000  0.000  0.000  0.000  0.005
   35  0.005  0.000  0.000  0.000  0.000  0.000  0.000  0.000  0.000  0.005
   36  0.005  0.000  0.000  0.000  0.000  0.000  0.000  0.000  0.000  0.005
tot    0.533  0.000  0.012  0.000  0.000  0.000  0.008  0.000  0.000  0.553
 
band     2 # energy   -6.76208608 # occ.  2.00000000
 
ion      s     py     pz     px    dxy    dyz    dz2    dxz  x2-y2    tot
    1  0.012  0.000  0.000  0.000  0.000  0.000  0.002  0.000  0.000  0.015
    2  0.012  0.000  0.000  0.000  0.000  0.000  0.002  0.000  0.000  0.015
    3  0.012  0.000  0.000  0.000  0.000  0.000  0.002  0.000  0.000  0.015
    4  0.012  0.000  0.000  0.000  0.000  0.000  0.002  0.000  0.000  0.015
    5  0.012  0.000  0.000  0.000  0.000  0.000  0.002  0.000  0.000  0.015
    6  0.012  0.000  0.000  0.000  0.000  0.000  0.002  0.000  0.000  0.015
    7  0.012  0.000  0.000  0.000  0.000  0.000  0.002  0.000  0.000  0.015
    8  0.012  0.000  0.000  0.000  0.000  0.000  0.002  0.000  0.000  0.015
    9  0.012  0.000  0.000  0.000  0.000  0.000  0.002  0.000  0.000  0.015
   10  0.008  0.000  0.001  0.000  0.000  0.000  0.006  0.000  0.000  0.016
   11  0.008  0.000  0.001  0.000  0.000  0.000  0.006  0.000  0.000  0.016
   12  0.008  0.000  0.001  0.000  0.000  0.000  0.006  0.000  0.000  0.016
   13  0.008  0.000  0.001  0.000  0.000  0.000  0.006  0.000  0.000  0.016
   14  0.008  0.000  0.001  0.000  0.000  0.000  0.006  0.000  0.000  0.016
   15  0.008  0.000  0.001  0.000  0.000  0.000  0.006  0.000  0.000  0.016
   16  0.008  0.000  0.001  0.000  0.000  0.000  0.006  0.000  0.000  0.016
   17  0.008  0.000  0.001  0.000  0.000  0.000  0.006  0.000  0.000  0.016
   18  0.008  0.000  0.001  0.000  0.000  0.000  0.006  0.000  0.000  0.016
   19  0.014  0.000  0.001  0.000  0.000  0.000  0.009  0.000  0.000  0.023
   20  0.014  0.000  0.001  0.000  0.000  0.000  0.009  0.000  0.000  0.023
   21  0.014  0.000  0.001  0.000  0.000  0.000  0.009  0.000  0.000  0.023
   22  0.014  0.000  0.001  0.000  0.000  0.000  0.009  0.000  0.000  0.023
   23  0.014  0.000  0.001  0.000  0.000  0.000  0.009  0.000  0.000  0.023
   24  0.014  0.000  0.001  0.000  0.000  0.000  0.009  0.000  0.000  0.023
   25  0.014  0.000  0.001  0.000  0.000  0.000  0.009  0.000  0.000  0.023
   26  0.014  0.000  0.001  0.000  0.000  0.000  0.009  0.000  0.000  0.023
   27  0.014  0.000  0.001  0.000  0.000  0.000  0.009  0.000  0.000  0.023
   28  0.013  0.000  0.000  0.000  0.000  0.000  0.002  0.000  0.000  0.016
   29  0.013  0.000  0.000  0.000  0.000  0.000  0.002  0.000  0.000  0.016
   30  0.013  0.000  0.000  0.000  0.000  0.000  0.002  0.000  0.000  0.016
   31  0.013  0.000  0.000  0.000  0.000  0.000  0.002  0.000  0.000  0.016
   32  0.013  0.000  0.000  0.000  0.000  0.000  0.002  0.000  0.000  0.016
   33  0.013  0.000  0.000  0.000  0.000  0.000  0.002  0.000  0.000  0.016
   34  0.013  0.000  0.000  0.000  0.000  0.000  0.002  0.000  0.000  0.016
   35  0.013  0.000  0.000  0.000  0.000  0.000  0.002  0.000  0.000  0.016
   36  0.013  0.000  0.000  0.000  0.000  0.000  0.002  0.000  0.000  0.016
tot    0.417  0.000  0.027  0.000  0.000  0.000  0.179  0.000  0.000  0.622
 
band     3 # energy   -6.52416504 # occ.  2.00000000
 
ion      s     py     pz     px    dxy    dyz    dz2    dxz  x2-y2    tot
    1  0.011  0.000  0.000  0.000  0.000  0.000  0.028  0.000  0.000  0.039
    2  0.011  0.000  0.000  0.000  0.000  0.000  0.028  0.000  0.000  0.039
    3  0.011  0.000  0.000  0.000  0.000  0.000  0.028  0.000  0.000  0.039
    4  0.011  0.000  0.000  0.000  0.000  0.000  0.028  0.000  0.000  0.039
    5  0.011  0.000  0.000  0.000  0.000  0.000  0.028  0.000  0.000  0.039
    6  0.011  0.000  0.000  0.000  0.000  0.000  0.028  0.000  0.000  0.039
    7  0.011  0.000  0.000  0.000  0.000  0.000  0.028  0.000  0.000  0.039
    8  0.011  0.000  0.000  0.000  0.000  0.000  0.028  0.000  0.000  0.039
    9  0.011  0.000  0.000  0.000  0.000  0.000  0.028  0.000  0.000  0.039
   10  0.004  0.000  0.000  0.000  0.000  0.000  0.032  0.000  0.000  0.036
   11  0.004  0.000  0.000  0.000  0.000  0.000  0.032  0.000  0.000  0.036
   12  0.004  0.000  0.000  0.000  0.000  0.000  0.032  0.000  0.000  0.036
   13  0.004  0.000  0.000  0.000  0.000  0.000  0.032  0.000  0.000  0.036
   14  0.004  0.000  0.000  0.000  0.000  0.000  0.032  0.000  0.000  0.036
   15  0.004  0.000  0.000  0.000  0.000  0.000  0.032  0.000  0.000  0.036
   16  0.004  0.000  0.000  0.000  0.000  0.000  0.032  0.000  0.000  0.036
   17  0.004  0.000  0.000  0.000  0.000  0.000  0.032  0.000  0.000  0.036
   18  0.004  0.000  0.000  0.000  0.000  0.000  0.032  0.000  0.000  0.036
   19  0.001  0.000  0.000  0.000  0.000  0.000  0.010  0.000  0.000  0.011
   20  0.001  0.000  0.000  0.000  0.000  0.000  0.010  0.000  0.000  0.011
   21  0.001  0.000  0.000  0.000  0.000  0.000  0.010  0.000  0.000  0.011
   22  0.001  0.000  0.000  0.000  0.000  0.000  0.010  0.000  0.000  0.011
   23  0.001  0.000  0.000  0.000  0.000  0.000  0.010  0.000  0.000  0.011
   24  0.001  0.000  0.000  0.000  0.000  0.000  0.010  0.000  0.000  0.011
   25  0.001  0.000  0.000  0.000  0.000  0.000  0.010  0.000  0.000  0.011
   26  0.001  0.000  0.000  0.000  0.000  0.000  0.010  0.000  0.000  0.011
   27  0.001  0.000  0.000  0.000  0.000  0.000  0.010  0.000  0.000  0.011
   28  0.001  0.000  0.000  0.000  0.000  0.000  0.003  0.000  0.000  0.005
   29  0.001  0.000  0.000  0.000  0.000  0.000  0.003  0.000  0.000  0.005
   30  0.001  0.000  0.000  0.000  0.000  0.000  0.003  0.000  0.000  0.005
   31  0.001  0.000  0.000  0.000  0.000  0.000  0.003  0.000  0.000  0.005
   32  0.001  0.000  0.000  0.000  0.000  0.000  0.003  0.000  0.000  0.005
   33  0.001  0.000  0.000  0.000  0.000  0.000  0.003  0.000  0.000  0.005
   34  0.001  0.000  0.000  0.000  0.000  0.000  0.003  0.000  0.000  0.005
   35  0.001  0.000  0.000  0.000  0.000  0.000  0.003  0.000  0.000  0.005
   36  0.001  0.000  0.000  0.000  0.000  0.000  0.003  0.000  0.000  0.005
tot    0.149  0.000  0.002  0.000  0.000  0.000  0.665  0.000  0.000  0.815
 
band     4 # energy   -6.37943804 # occ.  2.00000000
 
ion      s     py     pz     px    dxy    dyz    dz2    dxz  x2-y2    tot
    1  0.003  0.000  0.000  0.000  0.000  0.000  0.009  0.000  0.000  0.012
    2  0.003  0.000  0.000  0.000  0.000  0.000  0.009  0.000  0.000  0.012
    3  0.003  0.000  0.000  0.000  0.000  0.000  0.009  0.000  0.000  0.012
    4  0.003  0.000  0.000  0.000  0.000  0.000  0.009  0.000  0.000  0.012
    5  0.003  0.000  0.000  0.000  0.000  0.000  0.009  0.000  0.000  0.012
    6  0.003  0.000  0.000  0.000  0.000  0.000  0.009  0.000  0.000  0.012
    7  0.003  0.000  0.000  0.000  0.000  0.000  0.009  0.000  0.000  0.012
    8  0.003  0.000  0.000  0.000  0.000  0.000  0.009  0.000  0.000  0.012
    9  0.003  0.000  0.000  0.000  0.000  0.000  0.009  0.000  0.000  0.012
   10  0.001  0.000  0.000  0.000  0.000  0.000  0.002  0.000  0.000  0.003
   11  0.001  0.000  0.000  0.000  0.000  0.000  0.002  0.000  0.000  0.003
   12  0.001  0.000  0.000  0.000  0.000  0.000  0.002  0.000  0.000  0.003
   13  0.001  0.000  0.000  0.000  0.000  0.000  0.002  0.000  0.000  0.003
   14  0.001  0.000  0.000  0.000  0.000  0.000  0.002  0.000  0.000  0.003
   15  0.001  0.000  0.000  0.000  0.000  0.000  0.002  0.000  0.000  0.003
   16  0.001  0.000  0.000  0.000  0.000  0.000  0.002  0.000  0.000  0.003
   17  0.001  0.000  0.000  0.000  0.000  0.000  0.002  0.000  0.000  0.003
   18  0.001  0.000  0.000  0.000  0.000  0.000  0.002  0.000  0.000  0.003
   19  0.003  0.000  0.000  0.000  0.000  0.000  0.020  0.000  0.000  0.024
   20  0.003  0.000  0.000  0.000  0.000  0.000  0.020  0.000  0.000  0.024
   21  0.003  0.000  0.000  0.000  0.000  0.000  0.020  0.000  0.000  0.024
   22  0.003  0.000  0.000  0.000  0.000  0.000  0.020  0.000  0.000  0.024
   23  0.003  0.000  0.000  0.000  0.000  0.000  0.020  0.000  0.000  0.024
   24  0.003  0.000  0.000  0.000  0.000  0.000  0.020  0.000  0.000  0.024
   25  0.003  0.000  0.000  0.000  0.000  0.000  0.020  0.000  0.000  0.024
   26  0.003  0.000  0.000  0.000  0.000  0.000  0.020  0.000  0.000  0.024
   27  0.003  0.000  0.000  0.000  0.000  0.000  0.020  0.000  0.000  0.024
   28  0.015  0.000  0.000  0.000  0.000  0.000  0.034  0.000  0.000  0.048
   29  0.015  0.000  0.000  0.000  0.000  0.000  0.034  0.000  0.000  0.048
   30  0.015  0.000  0.000  0.000  0.000  0.000  0.034  0.000  0.000  0.048
   31  0.015  0.000  0.000  0.000  0.000  0.000  0.034  0.000  0.000  0.048
   32  0.015  0.000  0.000  0.000  0.000  0.000  0.034  0.000  0.000  0.048
   33  0.015  0.000  0.000  0.000  0.000  0.000  0.034  0.000  0.000  0.048
   34  0.015  0.000  0.000  0.000  0.000  0.000  0.034  0.000  0.000  0.048
   35  0.015  0.000  0.000  0.000  0.000  0.000  0.034  0.000  0.000  0.048
   36  0.015  0.000  0.000  0.000  0.000  0.000  0.034  0.000  0.000  0.048
tot    0.199  0.000  0.006  0.000  0.000  0.000  0.576  0.000  0.000  0.781
 
band     5 # energy   -6.27999546 # occ.  2.00000000
 
ion      s     py     pz     px    dxy    dyz    dz2    dxz  x2-y2    tot
    1  0.002  0.000  0.001  0.000  0.001  0.001  0.002  0.002  0.000  0.009
    2  0.002  0.000  0.000  0.000  0.008  0.001  0.002  0.002  0.003  0.016
    3  0.000  0.000  0.000  0.000  0.003  0.003  0.007  0.008  0.001  0.023
    4  0.002  0.000  0.000  0.000  0.008  0.001  0.002  0.002  0.003  0.016
    5  0.000  0.000  0.000  0.000  0.003  0.003  0.007  0.008  0.001  0.023
    6  0.002  0.000  0.001  0.000  0.001  0.001  0.002  0.002  0.000  0.009
    7  0.000  0.000  0.000  0.000  0.003  0.003  0.007  0.008  0.001  0.023
    8  0.002  0.000  0.001  0.000  0.001  0.001  0.002  0.002  0.000  0.009
    9  0.002  0.000  0.000  0.000  0.008  0.001  0.002  0.002  0.003  0.016
   10  0.000  0.000  0.000  0.001  0.004  0.000  0.002  0.001  0.001  0.009
   11  0.012  0.000  0.000  0.000  0.071  0.000  0.004  0.000  0.024  0.112
   12  0.009  0.000  0.000  0.000  0.043  0.000  0.001  0.000  0.014  0.068
   13  0.012  0.000  0.000  0.000  0.071  0.000  0.004  0.000  0.024  0.112
   14  0.009  0.000  0.000  0.000  0.043  0.000  0.001  0.000  0.014  0.068
   15  0.000  0.000  0.000  0.001  0.004  0.000  0.002  0.001  0.001  0.009
   16  0.009  0.000  0.000  0.000  0.043  0.000  0.001  0.000  0.014  0.068
   17  0.000  0.000  0.000  0.001  0.004  0.000  0.002  0.001  0.001  0.009
   18  0.012  0.000  0.000  0.000  0.071  0.000  0.004  0.000  0.024  0.112
   19  0.000  0.000  0.000  0.000  0.000  0.000  0.000  0.000  0.000  0.001
   20  0.001  0.000  0.000  0.000  0.001  0.002  0.006  0.005  0.000  0.015
   21  0.000  0.000  0.000  0.000  0.001  0.002  0.006  0.007  0.000  0.016
   22  0.001  0.000  0.000  0.000  0.001  0.002  0.006  0.005  0.000  0.015
   23  0.000  0.000  0.000  0.000  0.001  0.002  0.006  0.007  0.000  0.016
   24  0.000  0.000  0.000  0.000  0.000  0.000  0.000  0.000  0.000  0.001
   25  0.000  0.000  0.000  0.000  0.001  0.002  0.006  0.007  0.000  0.016
   26  0.000  0.000  0.000  0.000  0.000  0.000  0.000  0.000  0.000  0.001
   27  0.001  0.000  0.000  0.000  0.001  0.002  0.006  0.005  0.000  0.015
   28  0.000  0.000  0.000  0.000  0.000  0.000  0.000  0.000  0.000  0.000
   29  0.001  0.000  0.000  0.000  0.003  0.000  0.000  0.000  0.001  0.005
   30  0.001  0.000  0.000  0.000  0.004  0.000  0.000  0.000  0.001  0.006
   31  0.001  0.000  0.000  0.000  0.003  0.000  0.000  0.000  0.001  0.005
   32  0.001  0.000  0.000  0.000  0.004  0.000  0.000  0.000  0.001  0.006
   33  0.000  0.000  0.000  0.000  0.000  0.000  0.000  0.000  0.000  0.000
   34  0.001  0.000  0.000  0.000  0.004  0.000  0.000  0.000  0.001  0.006
   35  0.000  0.000  0.000  0.000  0.000  0.000  0.000  0.000  0.000  0.000
   36  0.001  0.000  0.000  0.000  0.003  0.000  0.000  0.000  0.001  0.005
tot    0.082  0.002  0.004  0.006  0.416  0.025  0.089  0.074  0.139  0.834
 
band     6 # energy   -6.27999546 # occ.  2.00000000
 
ion      s     py     pz     px    dxy    dyz    dz2    dxz  x2-y2    tot
    1  0.000  0.000  0.000  0.000  0.007  0.002  0.006  0.005  0.002  0.023
    2  0.001  0.000  0.000  0.000  0.000  0.002  0.005  0.006  0.000  0.016
    3  0.002  0.000  0.000  0.000  0.005  0.000  0.000  0.000  0.002  0.009
    4  0.001  0.000  0.000  0.000  0.000  0.002  0.005  0.006  0.000  0.016
    5  0.002  0.000  0.000  0.000  0.005  0.000  0.000  0.000  0.002  0.009
    6  0.000  0.000  0.000  0.000  0.007  0.002  0.006  0.005  0.002  0.023
    7  0.002  0.000  0.000  0.000  0.005  0.000  0.000  0.000  0.002  0.009
    8  0.000  0.000  0.000  0.000  0.007  0.002  0.006  0.005  0.002  0.023
    9  0.001  0.000  0.000  0.000  0.000  0.002  0.005  0.006  0.000  0.016
   10  0.014  0.000  0.000  0.000  0.075  0.000  0.003  0.000  0.025  0.117
   11  0.002  0.000  0.000  0.001  0.007  0.000  0.000  0.001  0.002  0.014
   12  0.005  0.000  0.000  0.000  0.036  0.000  0.004  0.001  0.012  0.057
   13  0.002  0.000  0.000  0.001  0.007  0.000  0.000  0.001  0.002  0.014
   14  0.005  0.000  0.000  0.000  0.036  0.000  0.004  0.001  0.012  0.057
   15  0.014  0.000  0.000  0.000  0.075  0.000  0.003  0.000  0.025  0.117
   16  0.005  0.000  0.000  0.000  0.036  0.000  0.004  0.001  0.012  0.057
   17  0.014  0.000  0.000  0.000  0.075  0.000  0.003  0.000  0.025  0.117
   18  0.002  0.000  0.000  0.001  0.007  0.000  0.000  0.001  0.002  0.014
   19  0.000  0.000  0.000  0.000  0.001  0.003  0.008  0.008  0.000  0.020
   20  0.000  0.000  0.000  0.000  0.000  0.001  0.002  0.003  0.000  0.006
   21  0.000  0.000  0.000  0.000  0.001  0.000  0.002  0.001  0.000  0.005
   22  0.000  0.000  0.000  0.000  0.000  0.001  0.002  0.003  0.000  0.006
   23  0.000  0.000  0.000  0.000  0.001  0.000  0.002  0.001  0.000  0.005
   24  0.000  0.000  0.000  0.000  0.001  0.003  0.008  0.008  0.000  0.020
   25  0.000  0.000  0.000  0.000  0.001  0.000  0.002  0.001  0.000  0.005
   26  0.000  0.000  0.000  0.000  0.001  0.003  0.008  0.008  0.000  0.020
   27  0.000  0.000  0.000  0.000  0.000  0.001  0.002  0.003  0.000  0.006
   28  0.001  0.000  0.000  0.000  0.005  0.000  0.000  0.000  0.002  0.007
   29  0.000  0.000  0.000  0.000  0.002  0.000  0.000  0.000  0.001  0.003
   30  0.000  0.000  0.000  0.000  0.001  0.000  0.000  0.000  0.000  0.001
   31  0.000  0.000  0.000  0.000  0.002  0.000  0.000  0.000  0.001  0.003
   32  0.000  0.000  0.000  0.000  0.001  0.000  0.000  0.000  0.000  0.001
   33  0.001  0.000  0.000  0.000  0.005  0.000  0.000  0.000  0.002  0.007
   34  0.000  0.000  0.000  0.000  0.001  0.000  0.000  0.000  0.000  0.001
   35  0.001  0.000  0.000  0.000  0.005  0.000  0.000  0.000  0.002  0.007
   36  0.000  0.000  0.000  0.000  0.002  0.000  0.000  0.000  0.001  0.003
tot    0.082  0.002  0.004  0.006  0.416  0.025  0.089  0.074  0.139  0.834
 
band     7 # energy   -6.27999276 # occ.  2.00000000
 
ion      s     py     pz     px    dxy    dyz    dz2    dxz  x2-y2    tot
    1  0.002  0.000  0.000  0.000  0.000  0.000  0.000  0.000  0.008  0.010
    2  0.002  0.000  0.000  0.000  0.000  0.000  0.000  0.000  0.007  0.010
    3  0.002  0.000  0.000  0.000  0.000  0.000  0.000  0.000  0.007  0.010
    4  0.001  0.000  0.001  0.000  0.000  0.007  0.005  0.000  0.000  0.014
    5  0.001  0.000  0.000  0.000  0.000  0.008  0.004  0.000  0.000  0.014
    6  0.001  0.000  0.001  0.000  0.000  0.007  0.005  0.000  0.000  0.014
    7  0.000  0.000  0.000  0.000  0.000  0.008  0.006  0.000  0.008  0.023
    8  0.000  0.000  0.000  0.000  0.000  0.008  0.007  0.000  0.009  0.024
    9  0.000  0.000  0.000  0.000  0.000  0.008  0.006  0.000  0.009  0.024
   10  0.001  0.001  0.000  0.000  0.000  0.001  0.000  0.000  0.005  0.008
   11  0.002  0.001  0.000  0.000  0.000  0.001  0.000  0.000  0.004  0.008
   12  0.001  0.001  0.000  0.000  0.000  0.001  0.000  0.000  0.005  0.009
   13  0.014  0.000  0.000  0.000  0.000  0.000  0.002  0.000  0.094  0.110
   14  0.012  0.000  0.000  0.000  0.000  0.000  0.002  0.000  0.099  0.114
   15  0.015  0.000  0.000  0.000  0.000  0.000  0.003  0.000  0.091  0.109
   16  0.006  0.001  0.000  0.000  0.000  0.001  0.004  0.000  0.058  0.070
   17  0.007  0.001  0.000  0.000  0.000  0.001  0.004  0.000  0.054  0.067
   18  0.006  0.001  0.000  0.000  0.000  0.001  0.004  0.000  0.060  0.071
   19  0.000  0.000  0.000  0.000  0.000  0.003  0.001  0.000  0.000  0.004
   20  0.000  0.000  0.000  0.000  0.000  0.003  0.001  0.000  0.000  0.004
   21  0.000  0.000  0.000  0.000  0.000  0.003  0.001  0.000  0.000  0.004
   22  0.000  0.000  0.000  0.000  0.000  0.010  0.008  0.000  0.001  0.020
   23  0.000  0.000  0.000  0.000  0.000  0.010  0.008  0.000  0.001  0.020
   24  0.000  0.000  0.000  0.000  0.000  0.011  0.007  0.000  0.001  0.020
   25  0.000  0.000  0.000  0.000  0.000  0.002  0.003  0.000  0.001  0.006
   26  0.000  0.000  0.000  0.000  0.000  0.002  0.003  0.000  0.001  0.006
   27  0.000  0.000  0.000  0.000  0.000  0.002  0.003  0.000  0.001  0.007
   28  0.000  0.000  0.000  0.000  0.000  0.000  0.000  0.000  0.001  0.002
   29  0.000  0.000  0.000  0.000  0.000  0.000  0.000  0.000  0.001  0.002
   30  0.000  0.000  0.000  0.000  0.000  0.000  0.000  0.000  0.001  0.002
   31  0.000  0.000  0.000  0.000  0.000  0.000  0.000  0.000  0.002  0.002
   32  0.000  0.000  0.000  0.000  0.000  0.000  0.000  0.000  0.002  0.002
   33  0.000  0.000  0.000  0.000  0.000  0.000  0.000  0.000  0.002  0.002
   34  0.001  0.000  0.000  0.000  0.000  0.000  0.000  0.000  0.006  0.007
   35  0.001  0.000  0.000  0.000  0.000  0.000  0.000  0.000  0.006  0.007
   36  0.001  0.000  0.000  0.000  0.000  0.000  0.000  0.000  0.007  0.007
tot    0.082  0.008  0.004  0.000  0.001  0.098  0.089  0.000  0.553  0.834
 
band     8 # energy   -6.27999276 # occ.  2.00000000
 
ion      s     py     pz     px    dxy    dyz    dz2    dxz  x2-y2    tot
    1  0.001  0.000  0.000  0.000  0.008  0.001  0.005  0.004  0.002  0.021
    2  0.002  0.000  0.000  0.000  0.003  0.000  0.000  0.000  0.001  0.008
    3  0.000  0.000  0.000  0.000  0.001  0.002  0.006  0.007  0.000  0.019
    4  0.001  0.000  0.000  0.000  0.008  0.001  0.005  0.004  0.003  0.021
    5  0.002  0.000  0.000  0.000  0.003  0.000  0.000  0.000  0.001  0.008
    6  0.000  0.000  0.000  0.000  0.001  0.003  0.006  0.007  0.000  0.018
    7  0.001  0.000  0.000  0.000  0.008  0.002  0.004  0.004  0.003  0.021
    8  0.002  0.000  0.000  0.000  0.003  0.000  0.000  0.000  0.001  0.008
    9  0.000  0.000  0.000  0.000  0.001  0.002  0.007  0.007  0.000  0.019
   10  0.003  0.000  0.000  0.001  0.021  0.000  0.003  0.001  0.007  0.036
   11  0.005  0.000  0.000  0.001  0.018  0.000  0.000  0.000  0.006  0.030
   12  0.014  0.000  0.000  0.000  0.078  0.000  0.003  0.000  0.026  0.122
   13  0.003  0.000  0.000  0.001  0.021  0.000  0.003  0.001  0.006  0.035
   14  0.005  0.000  0.000  0.001  0.018  0.000  0.000  0.000  0.005  0.029
   15  0.013  0.000  0.000  0.000  0.078  0.000  0.003  0.000  0.029  0.124
   16  0.002  0.000  0.000  0.001  0.021  0.000  0.003  0.001  0.009  0.037
   17  0.004  0.000  0.000  0.001  0.018  0.000  0.000  0.000  0.007  0.031
   18  0.015  0.000  0.000  0.000  0.078  0.000  0.004  0.000  0.023  0.120
   19  0.001  0.000  0.000  0.000  0.001  0.002  0.008  0.007  0.000  0.019
   20  0.000  0.000  0.000  0.000  0.000  0.000  0.001  0.000  0.000  0.002
   21  0.000  0.000  0.000  0.000  0.000  0.002  0.003  0.005  0.000  0.010
   22  0.000  0.000  0.000  0.000  0.001  0.003  0.007  0.007  0.000  0.019
   23  0.000  0.000  0.000  0.000  0.000  0.000  0.001  0.000  0.000  0.002
   24  0.000  0.000  0.000  0.000  0.000  0.001  0.003  0.005  0.000  0.010
   25  0.001  0.000  0.000  0.000  0.001  0.002  0.008  0.007  0.000  0.019
   26  0.000  0.000  0.000  0.000  0.000  0.000  0.001  0.000  0.000  0.002
   27  0.000  0.000  0.000  0.000  0.000  0.002  0.003  0.005  0.000  0.009
   28  0.001  0.000  0.000  0.000  0.004  0.000  0.000  0.000  0.001  0.007
   29  0.000  0.000  0.000  0.000  0.000  0.000  0.000  0.000  0.000  0.000
   30  0.000  0.000  0.000  0.000  0.003  0.000  0.000  0.000  0.001  0.004
   31  0.001  0.000  0.000  0.000  0.004  0.000  0.000  0.000  0.001  0.007
   32  0.000  0.000  0.000  0.000  0.000  0.000  0.000  0.000  0.000  0.000
   33  0.000  0.000  0.000  0.000  0.003  0.000  0.000  0.000  0.001  0.004
   34  0.001  0.000  0.000  0.000  0.004  0.000  0.000  0.000  0.002  0.007
   35  0.000  0.000  0.000  0.000  0.000  0.000  0.000  0.000  0.000  0.000
   36  0.000  0.000  0.000  0.000  0.003  0.000  0.000  0.000  0.001  0.004
tot    0.082  0.002  0.004  0.006  0.415  0.025  0.089  0.073  0.139  0.834
 
band     9 # energy   -6.27999276 # occ.  2.00000000
 
ion      s     py     pz     px    dxy    dyz    dz2    dxz  x2-y2    tot
    1  0.002  0.000  0.001  0.000  0.000  0.002  0.002  0.004  0.000  0.011
    2  0.000  0.000  0.000  0.000  0.005  0.002  0.008  0.007  0.001  0.024
    3  0.002  0.000  0.000  0.000  0.007  0.000  0.001  0.001  0.003  0.014
    4  0.001  0.000  0.000  0.000  0.000  0.001  0.003  0.004  0.000  0.011
    5  0.000  0.000  0.000  0.000  0.005  0.002  0.007  0.007  0.002  0.024
    6  0.002  0.000  0.000  0.000  0.007  0.000  0.001  0.001  0.002  0.013
    7  0.002  0.000  0.001  0.000  0.000  0.001  0.004  0.004  0.000  0.011
    8  0.000  0.000  0.000  0.000  0.005  0.003  0.006  0.007  0.002  0.023
    9  0.002  0.000  0.000  0.000  0.007  0.000  0.001  0.001  0.002  0.013
   10  0.010  0.000  0.000  0.000  0.057  0.000  0.001  0.000  0.025  0.094
   11  0.011  0.000  0.000  0.000  0.060  0.000  0.005  0.000  0.015  0.091
   12  0.000  0.000  0.000  0.001  0.000  0.000  0.001  0.001  0.001  0.004
   13  0.011  0.000  0.000  0.000  0.057  0.000  0.001  0.000  0.020  0.090
   14  0.010  0.000  0.000  0.000  0.060  0.000  0.004  0.000  0.019  0.094
   15  0.000  0.000  0.000  0.001  0.000  0.000  0.001  0.001  0.000  0.004
   16  0.014  0.000  0.000  0.000  0.057  0.000  0.002  0.000  0.013  0.085
   17  0.008  0.000  0.000  0.000  0.060  0.000  0.004  0.000  0.027  0.099
   18  0.000  0.000  0.000  0.001  0.000  0.000  0.001  0.001  0.001  0.004
   19  0.000  0.000  0.000  0.000  0.000  0.000  0.000  0.001  0.000  0.002
   20  0.000  0.000  0.000  0.000  0.001  0.003  0.006  0.008  0.000  0.018
   21  0.001  0.000  0.000  0.000  0.001  0.001  0.005  0.003  0.000  0.011
   22  0.000  0.000  0.000  0.000  0.000  0.000  0.000  0.001  0.000  0.001
   23  0.000  0.000  0.000  0.000  0.001  0.003  0.006  0.008  0.000  0.018
   24  0.000  0.000  0.000  0.000  0.001  0.001  0.005  0.003  0.000  0.011
   25  0.000  0.000  0.000  0.000  0.000  0.001  0.000  0.001  0.000  0.002
   26  0.000  0.000  0.000  0.000  0.001  0.002  0.008  0.008  0.000  0.019
   27  0.000  0.000  0.000  0.000  0.001  0.002  0.004  0.003  0.000  0.011
   28  0.000  0.000  0.000  0.000  0.000  0.000  0.000  0.000  0.000  0.001
   29  0.001  0.000  0.000  0.000  0.004  0.000  0.000  0.000  0.001  0.007
   30  0.000  0.000  0.000  0.000  0.002  0.000  0.000  0.000  0.001  0.004
   31  0.000  0.000  0.000  0.000  0.000  0.000  0.000  0.000  0.000  0.001
   32  0.001  0.000  0.000  0.000  0.004  0.000  0.000  0.000  0.002  0.007
   33  0.000  0.000  0.000  0.000  0.002  0.000  0.000  0.000  0.001  0.003
   34  0.000  0.000  0.000  0.000  0.000  0.000  0.000  0.000  0.000  0.001
   35  0.001  0.000  0.000  0.000  0.004  0.000  0.000  0.000  0.002  0.007
   36  0.000  0.000  0.000  0.000  0.002  0.000  0.000  0.000  0.001  0.003
tot    0.082  0.002  0.004  0.006  0.412  0.025  0.089  0.073  0.142  0.834
 
band    10 # energy   -6.27999276 # occ.  2.00000000
 
ion      s     py     pz     px    dxy    dyz    dz2    dxz  x2-y2    tot
    1  0.000  0.001  0.000  0.000  0.000  0.010  0.008  0.000  0.003  0.022
    2  0.000  0.001  0.000  0.000  0.000  0.011  0.006  0.000  0.004  0.022
    3  0.000  0.001  0.000  0.000  0.000  0.010  0.008  0.000  0.003  0.021
    4  0.002  0.000  0.000  0.000  0.000  0.003  0.002  0.000  0.010  0.018
    5  0.001  0.000  0.000  0.000  0.000  0.003  0.003  0.000  0.010  0.018
    6  0.001  0.000  0.000  0.000  0.000  0.003  0.003  0.000  0.011  0.018
    7  0.002  0.000  0.000  0.000  0.000  0.002  0.001  0.000  0.002  0.008
    8  0.002  0.000  0.001  0.000  0.000  0.002  0.002  0.000  0.002  0.009
    9  0.002  0.000  0.001  0.000  0.000  0.002  0.001  0.000  0.002  0.008
   10  0.015  0.000  0.000  0.000  0.000  0.000  0.004  0.000  0.093  0.113
   11  0.011  0.000  0.000  0.000  0.001  0.000  0.004  0.000  0.106  0.122
   12  0.013  0.000  0.000  0.000  0.000  0.000  0.004  0.000  0.099  0.117
   13  0.000  0.001  0.000  0.000  0.000  0.001  0.002  0.000  0.012  0.016
   14  0.001  0.001  0.000  0.000  0.001  0.001  0.003  0.000  0.008  0.014
   15  0.001  0.001  0.000  0.000  0.000  0.001  0.002  0.000  0.010  0.015
   16  0.007  0.000  0.000  0.000  0.000  0.000  0.000  0.000  0.051  0.059
   17  0.009  0.000  0.000  0.000  0.001  0.000  0.001  0.000  0.042  0.054
   18  0.008  0.000  0.000  0.000  0.000  0.000  0.000  0.000  0.047  0.056
   19  0.001  0.000  0.000  0.000  0.000  0.008  0.006  0.000  0.001  0.016
   20  0.001  0.000  0.000  0.000  0.000  0.007  0.008  0.000  0.001  0.016
   21  0.000  0.000  0.000  0.000  0.000  0.008  0.006  0.000  0.001  0.016
   22  0.000  0.000  0.000  0.000  0.000  0.000  0.000  0.000  0.000  0.001
   23  0.000  0.000  0.000  0.000  0.000  0.000  0.000  0.000  0.000  0.001
   24  0.000  0.000  0.000  0.000  0.000  0.000  0.000  0.000  0.000  0.001
   25  0.000  0.000  0.000  0.000  0.000  0.008  0.005  0.000  0.001  0.014
   26  0.000  0.000  0.000  0.000  0.000  0.009  0.004  0.000  0.001  0.014
   27  0.000  0.000  0.000  0.000  0.000  0.008  0.005  0.000  0.001  0.014
   28  0.001  0.000  0.000  0.000  0.000  0.000  0.000  0.000  0.005  0.005
   29  0.001  0.000  0.000  0.000  0.000  0.000  0.000  0.000  0.005  0.006
   30  0.001  0.000  0.000  0.000  0.000  0.000  0.000  0.000  0.005  0.005
   31  0.001  0.000  0.000  0.000  0.000  0.000  0.000  0.000  0.005  0.005
   32  0.001  0.000  0.000  0.000  0.000  0.000  0.000  0.000  0.004  0.005
   33  0.001  0.000  0.000  0.000  0.000  0.000  0.000  0.000  0.005  0.006
   34  0.000  0.000  0.000  0.000  0.000  0.000  0.000  0.000  0.000  0.000
   35  0.000  0.000  0.000  0.000  0.000  0.000  0.000  0.000  0.000  0.000
   36  0.000  0.000  0.000  0.000  0.000  0.000  0.000  0.000  0.000  0.000
tot    0.082  0.008  0.004  0.000  0.004  0.098  0.089  0.001  0.550  0.834
 
band    11 # energy   -6.23234056 # occ.  2.00000000
 
ion      s     py     pz     px    dxy    dyz    dz2    dxz  x2-y2    tot
    1  0.002  0.000  0.000  0.000  0.011  0.000  0.000  0.001  0.004  0.018
    2  0.001  0.000  0.000  0.000  0.004  0.000  0.000  0.000  0.001  0.006
    3  0.002  0.000  0.000  0.000  0.014  0.000  0.000  0.001  0.005  0.023