Cu-Ag alloy CO adsorption (RPBE, matches
            1
     8.665594    0.000000    0.000000
     4.332797    7.504624    0.000000
     0.000000    0.000000   31.075428
   Ag
    36
Direct configuration=     1
   0.00000000  0.00000000  0.38615720
   0.33333333  0.00000000  0.38615720
   0.66666667  0.00000000  0.38615720
   0.00000000  0.33333333  0.38615720
   0.33333333  0.33333333  0.38615720
   0.66666667  0.33333333  0.38615720
   0.00000000  0.66666667  0.38615720
   0.33333333  0.66666667  0.38615720
   0.66666667  0.66666667  0.38615720
   0.11111111  0.11111111  0.46205240
   0.44444444  0.11111111  0.46205240
   0.77777778  0.11111111  0.46205240
   0.11111111  0.44444444  0.46205240
   0.44444444  0.44444444  0.46205240
   0.77777778  0.44444444  0.46205240
   0.11111111  0.77777778  0.46205240
   0.44444444  0.77777778  0.46205240
   0.77777778  0.77777778  0.46205240
   0.88888889  0.22222222  0.53794760
   0.22222222  0.22222222  0.53794760
   0.55555556  0.22222222  0.53794760
   0.88888889  0.55555556  0.53794760
   0.22222222  0.55555556  0.53794760
   0.55555556  0.55555556  0.53794760
   0.88888889  0.88888889  0.53794760
   0.22222222  0.88888889  0.53794760
   0.55555556  0.88888889  0.53794760
   0.00000000  0.00000000  0.61384280
   0.33333333  0.00000000  0.61384280
   0.66666667  0.00000000  0.61384280
   0.00000000  0.33333333  0.61384280
   0.33333333  0.33333333  0.61384280
   0.66666667  0.33333333  0.61384280
   0.00000000  0.66666667  0.61384280
   0.33333333  0.66666667  0.61384280
   0.66666667  0.66666667  0.61384280
Direct configuration=     2
   0.00000000  0.00000000  0.38615720
   0.33333333  0.00000000  0.38615720
   0.66666667  0.00000000  0.38615720
   0.00000000  0.33333333  0.38615720
   0.33333333  0.33333333  0.38615720
   0.66666667  0.33333333  0.38615720
   0.00000000  0.66666667  0.38615720
   0.33333333  0.66666667  0.38615720
   0.66666667  0.66666667  0.38615720
   0.11111111  0.11111111  0.46205240
   0.44444444  0.11111111  0.46205240
   0.77777778  0.11111111  0.46205240
   0.11111111  0.44444444  0.46205240
   0.44444444  0.44444444  0.46205240
   0.77777778  0.44444444  0.46205240
   0.11111111  0.77777778  0.46205240
   0.44444444  0.77777778  0.46205240
   0.77777778  0.77777778  0.46205240
   0.88888889  0.22222222  0.53789698
   0.22222222  0.22222222  0.53789698
   0.55555556  0.22222222  0.53789698
   0.88888889  0.55555556  0.53789698
   0.22222222  0.55555556  0.53789698
   0.55555556  0.55555556  0.53789698
   0.88888889  0.88888889  0.53789698
   0.22222222  0.88888889  0.53789698
   0.55555556  0.88888889  0.53789698
   0.00000000  1.00000000  0.61435981
   0.33333333  1.00000000  0.61435981
   0.66666667  1.00000000  0.61435981
   1.00000000  0.33333333  0.61435981
   0.33333333  0.33333333  0.61435981
   0.66666667  0.33333333  0.61435981
   0.00000000  0.66666667  0.61435981
   0.33333333  0.66666667  0.61435981
   0.66666667  0.66666667  0.61435981
Direct configuration=     3
   0.00000000  0.00000000  0.38615720
   0.33333333  0.00000000  0.38615720
   0.66666667  0.00000000  0.38615720
   0.00000000  0.33333333  0.38615720
   0.33333333  0.33333333  0.38615720
   0.66666667  0.33333333  0.38615720
   0.00000000  0.66666667  0.38615720
   0.33333333  0.66666667  0.38615720
   0.66666667  0.66666667  0.38615720
   0.11111111  0.11111111  0.46205240
   0.44444444  0.11111111  0.46205240
   0.77777778  0.11111111  0.46205240
   0.11111111  0.44444444  0.46205240
   0.44444444  0.44444444  0.46205240
   0.77777778  0.44444444  0.46205240
   0.11111111  0.77777778  0.46205240
   0.44444444  0.77777778  0.46205240
   0.77777778  0.77777778  0.46205240
   0.88888889  0.22222222  0.53781153
   0.22222222  0.22222222  0.53781153
   0.55555556  0.22222222  0.53781153
   0.88888889  0.55555556  0.53781153
   0.22222222  0.55555556  0.53781153
   0.55555556  0.55555556  0.53781153
   0.88888889  0.88888889  0.53781153
   0.22222222  0.88888889  0.53781153
   0.55555556  0.88888889  0.53781153
   0.00000000  0.00000000  0.61523263
   0.33333333  0.00000000  0.61523263
   0.66666667  0.00000000  0.61523263
   0.00000000  0.33333333  0.61523263
   0.33333333  0.33333333  0.61523263
   0.66666667  0.33333333  0.61523263
   0.00000000  0.66666667  0.61523263
   0.33333333  0.66666667  0.61523263
   0.66666667  0.66666667  0.61523263
Direct configuration=     4
   0.00000000  0.00000000  0.38615720
   0.33333333  0.00000000  0.38615720
   0.66666667  0.00000000  0.38615720
   0.00000000  0.33333333  0.38615720
   0.33333333  0.33333333  0.38615720
   0.66666667  0.33333333  0.38615720
   0.00000000  0.66666667  0.38615720
   0.33333333  0.66666667  0.38615720
   0.66666667  0.66666667  0.38615720
   0.11111111  0.11111111  0.46205240
   0.44444444  0.11111111  0.46205240
   0.77777778  0.11111111  0.46205240
   0.11111111  0.44444444  0.46205240
   0.44444444  0.44444444  0.46205240
   0.77777778  0.44444444  0.46205240
   0.11111111  0.77777778  0.46205240
   0.44444444  0.77777778  0.46205240
   0.77777778  0.77777778  0.46205240
   0.88888889  0.22222222  0.53764061
   0.22222222  0.22222222  0.53764061
   0.55555556  0.22222222  0.53764061
   0.88888889  0.55555556  0.53764061
   0.22222222  0.55555556  0.53764061
   0.55555556  0.55555556  0.53764061
   0.88888889  0.88888889  0.53764061
   0.22222222  0.88888889  0.53764061
   0.55555556  0.88888889  0.53764061
   0.00000000  1.00000000  0.61697826
   0.33333333  1.00000000  0.61697826
   0.66666667  1.00000000  0.61697826
   1.00000000  0.33333333  0.61697826
   0.33333333  0.33333333  0.61697826
   0.66666667  0.33333333  0.61697826
   0.00000000  0.66666667  0.61697826
   0.33333333  0.66666667  0.61697826
   0.66666667  0.66666667  0.61697826
Direct configuration=     5
   0.00000000  0.00000000  0.38615720
   0.33333333  0.00000000  0.38615720
   0.66666667  0.00000000  0.38615720
   0.00000000  0.33333333  0.38615720
   0.33333333  0.33333333  0.38615720
   0.66666667  0.33333333  0.38615720
   0.00000000  0.66666667  0.38615720
   0.33333333  0.66666667  0.38615720
   0.66666667  0.66666667  0.38615720
   0.11111111  0.11111111  0.46205240
   0.44444444  0.11111111  0.46205240
   0.77777778  0.11111111  0.46205240
   0.11111111  0.44444444  0.46205240
   0.44444444  0.44444444  0.46205240
   0.77777778  0.44444444  0.46205240
   0.11111111  0.77777778  0.46205240
   0.44444444  0.77777778  0.46205240
   0.77777778  0.77777778  0.46205240
   0.88888889  0.22222222  0.53834744
   0.22222222  0.22222222  0.53834744
   0.55555556  0.22222222  0.53834744
   0.88888889  0.55555556  0.53834744
   0.22222222  0.55555556  0.53834744
   0.55555556  0.55555556  0.53834744
   0.88888889  0.88888889  0.53834744
   0.22222222  0.88888889  0.53834744
   0.55555556  0.88888889  0.53834744
   0.00000000  0.00000000  0.61768130
   0.33333333  0.00000000  0.61768130
   0.66666667  0.00000000  0.61768130
   0.00000000  0.33333333  0.61768130
   0.33333333  0.33333333  0.61768130
   0.66666667  0.33333333  0.61768130
   0.00000000  0.66666667  0.61768130
   0.33333333  0.66666667  0.61768130
   0.66666667  0.66666667  0.61768130
Direct configuration=     6
   0.00000000  0.00000000  0.38615720
   0.33333333  0.00000000  0.38615720
   0.66666667  0.00000000  0.38615720
   0.00000000  0.33333333  0.38615720
   0.33333333  0.33333333  0.38615720
   0.66666667  0.33333333  0.38615720
   0.00000000  0.66666667  0.38615720
   0.33333333  0.66666667  0.38615720
   0.66666667  0.66666667  0.38615720
   0.11111111  0.11111111  0.46205240
   0.44444444  0.11111111  0.46205240
   0.77777778  0.11111111  0.46205240
   0.11111111  0.44444444  0.46205240
   0.44444444  0.44444444  0.46205240
   0.77777778  0.44444444  0.46205240
   0.11111111  0.77777778  0.46205240
   0.44444444  0.77777778  0.46205240
   0.77777778  0.77777778  0.46205240
   0.88888889  0.22222222  0.53943804
   0.22222222  0.22222222  0.53943804
   0.55555556  0.22222222  0.53943804
   0.88888889  0.55555556  0.53943804
   0.22222222  0.55555556  0.53943804
   0.55555556  0.55555556  0.53943804
   0.88888889  0.88888889  0.53943804
   0.22222222  0.88888889  0.53943804
   0.55555556  0.88888889  0.53943804
   0.00000000  0.00000000  0.61876606
   0.33333333  0.00000000  0.61876606
   0.66666667  0.00000000  0.61876606
   1.00000000  0.33333333  0.61876606
   0.33333333  0.33333333  0.61876606
   0.66666667  0.33333333  0.61876606
   0.00000000  0.66666667  0.61876606
   0.33333333  0.66666667  0.61876606
   0.66666667  0.66666667  0.61876606
Direct configuration=     7
   0.00000000  0.00000000  0.38615720
   0.33333333  0.00000000  0.38615720
   0.66666667  0.00000000  0.38615720
   0.00000000  0.33333333  0.38615720
   0.33333333  0.33333333  0.38615720
   0.66666667  0.33333333  0.38615720
   0.00000000  0.66666667  0.38615720
   0.33333333  0.66666667  0.38615720
   0.66666667  0.66666667  0.38615720
   0.11111111  0.11111111  0.46205240
   0.44444444  0.11111111  0.46205240
   0.77777778  0.11111111  0.46205240
   0.11111111  0.44444444  0.46205240
   0.44444444  0.44444444  0.46205240
   0.77777778  0.44444444  0.46205240
   0.11111111  0.77777778  0.46205240
   0.44444444  0.77777778  0.46205240
   0.77777778  0.77777778  0.46205240
   0.88888889  0.22222222  0.54161923
   0.22222222  0.22222222  0.54161923
   0.55555556  0.22222222  0.54161923
   0.88888889  0.55555556  0.54161923
   0.22222222  0.55555556  0.54161923
   0.55555556  0.55555556  0.54161923
   0.88888889  0.88888889  0.54161923
   0.22222222  0.88888889  0.54161923
   0.55555556  0.88888889  0.54161923
   0.00000000  0.00000000  0.62093558
   0.33333333  0.00000000  0.62093558
   0.66666667  0.00000000  0.62093558
   0.00000000  0.33333333  0.62093558
   0.33333333  0.33333333  0.62093558
   0.66666667  0.33333333  0.62093558
   0.00000000  0.66666667  0.62093558
   0.33333333  0.66666667  0.62093558
   0.66666667  0.66666667  0.62093558
Direct configuration=     8
   0.00000000  0.00000000  0.38615720
   0.33333333  0.00000000  0.38615720
   0.66666667  0.00000000  0.38615720
   0.00000000  0.33333333  0.38615720
   0.33333333  0.33333333  0.38615720
   0.66666667  0.33333333  0.38615720
   0.00000000  0.66666667  0.38615720
   0.33333333  0.66666667  0.38615720
   0.66666667  0.66666667  0.38615720
   0.11111111  0.11111111  0.46205240
   0.44444444  0.11111111  0.46205240
   0.77777778  0.11111111  0.46205240
   0.11111111  0.44444444  0.46205240
   0.44444444  0.44444444  0.46205240
   0.77777778  0.44444444  0.46205240
   0.11111111  0.77777778  0.46205240
   0.44444444  0.77777778  0.46205240
   0.77777778  0.77777778  0.46205240
   0.88888889  0.22222222  0.54126361
   0.22222222  0.22222222  0.54126361
   0.55555556  0.22222222  0.54126361
   0.88888889  0.55555556  0.54126361
   0.22222222  0.55555556  0.54126361
   0.55555556  0.55555556  0.54126361
   0.88888889  0.88888889  0.54126361
   0.22222222  0.88888889  0.54126361
   0.55555556  0.88888889  0.54126361
   0.00000000  0.00000000  0.62058186
   0.33333333  0.00000000  0.62058186
   0.66666667  0.00000000  0.62058186
   0.00000000  0.33333333  0.62058186
   0.33333333  0.33333333  0.62058186
   0.66666667  0.33333333  0.62058186
   0.00000000  0.66666667  0.62058186
   0.33333333  0.66666667  0.62058186
   0.66666667  0.66666667  0.62058186
Direct configuration=     9
   0.00000000  0.00000000  0.38615720
   0.33333333  0.00000000  0.38615720
   0.66666667  0.00000000  0.38615720
   0.00000000  0.33333333  0.38615720
   0.33333333  0.33333333  0.38615720
   0.66666667  0.33333333  0.38615720
   0.00000000  0.66666667  0.38615720
   0.33333333  0.66666667  0.38615720
   0.66666667  0.66666667  0.38615720
   0.11111111  0.11111111  0.46205240
   0.44444444  0.11111111  0.46205240
   0.77777778  0.11111111  0.46205240
   0.11111111  0.44444444  0.46205240
   0.44444444  0.44444444  0.46205240
   0.77777778  0.44444444  0.46205240
   0.11111111  0.77777778  0.46205240
   0.44444444  0.77777778  0.46205240
   0.77777778  0.77777778  0.46205240
   0.88888889  0.22222222  0.54123117
   0.22222222  0.22222222  0.54123117
   0.55555556  0.22222222  0.54123117
   0.88888889  0.55555556  0.54123117
   0.22222222  0.55555556  0.54123117
   0.55555556  0.55555556  0.54123117
   0.88888889  0.88888889  0.54123117
   0.22222222  0.88888889  0.54123117
   0.55555556  0.88888889  0.54123117
   0.00000000  0.00000000  0.62054960
   0.33333333  0.00000000  0.62054960
   0.66666667  0.00000000  0.62054960
   0.00000000  0.33333333  0.62054960
   0.33333333  0.33333333  0.62054960
   0.66666667  0.33333333  0.62054960
   0.00000000  0.66666667  0.62054960
   0.33333333  0.66666667  0.62054960
   0.66666667  0.66666667  0.62054960
Direct configuration=    10
   0.00000000  0.00000000  0.38615720
   0.33333333  0.00000000  0.38615720
   0.66666667  0.00000000  0.38615720
   0.00000000  0.33333333  0.38615720
   0.33333333  0.33333333  0.38615720
   0.66666667  0.33333333  0.38615720
   0.00000000  0.66666667  0.38615720
   0.33333333  0.66666667  0.38615720
   0.66666667  0.66666667  0.38615720
   0.11111111  0.11111111  0.46205240
   0.44444444  0.11111111  0.46205240
   0.77777778  0.11111111  0.46205240
   0.11111111  0.44444444  0.46205240
   0.44444444  0.44444444  0.46205240
   0.77777778  0.44444444  0.46205240
   0.11111111  0.77777778  0.46205240
   0.44444444  0.77777778  0.46205240
   0.77777778  0.77777778  0.46205240
   0.88888889  0.22222222  0.54124475
   0.22222222  0.22222222  0.54124475
   0.55555556  0.22222222  0.54124475
   0.88888889  0.55555556  0.54124475
   0.22222222  0.55555556  0.54124475
   0.55555556  0.55555556  0.54124475
   0.88888889  0.88888889  0.54124475
   0.22222222  0.88888889  0.54124475
   0.55555556  0.88888889  0.54124475
   0.00000000  0.00000000  0.62056310
   0.33333333  0.00000000  0.62056310
   0.66666667  0.00000000  0.62056310
   0.00000000  0.33333333  0.62056310
   0.33333333  0.33333333  0.62056310
   0.66666667  0.33333333  0.62056310
   0.00000000  0.66666667  0.62056310
   0.33333333  0.66666667  0.62056310
   0.66666667  0.66666667  0.62056310
Direct configuration=    11
   0.00000000  0.00000000  0.38615720
   0.33333333  0.00000000  0.38615720
   0.66666667  0.00000000  0.38615720
   0.00000000  0.33333333  0.38615720
   0.33333333  0.33333333  0.38615720
   0.66666667  0.33333333  0.38615720
   0.00000000  0.66666667  0.38615720
   0.33333333  0.66666667  0.38615720
   0.66666667  0.66666667  0.38615720
   0.11111111  0.11111111  0.46205240
   0.44444444  0.11111111  0.46205240
   0.77777778  0.11111111  0.46205240
   0.11111111  0.44444444  0.46205240
   0.44444444  0.44444444  0.46205240
   0.77777778  0.44444444  0.46205240
   0.11111111  0.77777778  0.46205240
   0.44444444  0.77777778  0.46205240
   0.77777778  0.77777778  0.46205240
   0.88888889  0.22222222  0.54123522
   0.22222222  0.22222222  0.54123522
   0.55555556  0.22222222  0.54123522
   0.88888889  0.55555556  0.54123522
   0.22222222  0.55555556  0.54123522
   0.55555556  0.55555556  0.54123522
   0.88888889  0.88888889  0.54123522
   0.22222222  0.88888889  0.54123522
   0.55555556  0.88888889  0.54123522
   0.00000000  0.00000000  0.62055362
   0.33333333  0.00000000  0.62055362
   0.66666667  0.00000000  0.62055362
   0.00000000  0.33333333  0.62055362
   0.33333333  0.33333333  0.62055362
   0.66666667  0.33333333  0.62055362
   0.00000000  0.66666667  0.62055362
   0.33333333  0.66666667  0.62055362
   0.66666667  0.66666667  0.62055362
Direct configuration=    12
   0.00000000  0.00000000  0.38615720
   0.33333333  0.00000000  0.38615720
   0.66666667  0.00000000  0.38615720
   0.00000000  0.33333333  0.38615720
   0.33333333  0.33333333  0.38615720
   0.66666667  0.33333333  0.38615720
   0.00000000  0.66666667  0.38615720
   0.33333333  0.66666667  0.38615720
   0.66666667  0.66666667  0.38615720
   0.11111111  0.11111111  0.46205240
   0.44444444  0.11111111  0.46205240
   0.77777778  0.11111111  0.46205240
   0.11111111  0.44444444  0.46205240
   0.44444444  0.44444444  0.46205240
   0.77777778  0.44444444  0.46205240
   0.11111111  0.77777778  0.46205240
   0.44444444  0.77777778  0.46205240
   0.77777778  0.77777778  0.46205240
   0.88888889  0.22222222  0.54122877
   0.22222222  0.22222222  0.54122877
   0.55555556  0.22222222  0.54122877
   0.88888889  0.55555556  0.54122877
   0.22222222  0.55555556  0.54122877
   0.55555556  0.55555556  0.54122877
   0.88888889  0.88888889  0.54122877
   0.22222222  0.88888889  0.54122877
   0.55555556  0.88888889  0.54122877
   0.00000000  0.00000000  0.62088771
   0.33333333  0.00000000  0.62088771
   0.66666667  0.00000000  0.62088771
   1.00000000  0.33333333  0.62088771
   0.33333333  0.33333333  0.62088771
   0.66666667  0.33333333  0.62088771
   0.00000000  0.66666667  0.62088771
   0.33333333  0.66666667  0.62088771
   0.66666667  0.66666667  0.62088771
