108
Lattice="10.845 0.0 0.0 0.0 10.845 0.0 0.0 0.0 10.845" Properties=species:S:1:pos:R:3:momenta:R:3:forces:R:3:magmoms:R:1 energy=-402.9175109863281 stress="-0.12686657905578613 0.007167493458837271 -0.005152280442416668 0.00716746412217617 -0.10860241204500198 0.006399745587259531 -0.005152288358658552 0.006399761885404587 -0.09937799721956253" free_energy=-402.9175109863281 pbc="T T T"
Cu      -0.69861420       0.48892992      -0.11012591      -7.01297095       4.50822079       0.50462542       0.85653758      -1.19921446      -1.27862096       0.04707646
Cu      -0.19981239       2.32016936       1.74353009       1.45540190       1.61920249       4.64505507       0.84338057       1.19365728       0.90262997       0.05441165
Cu       1.03648045      -0.04691444       1.30911805       0.42653374       3.40215308       4.80151255       0.68363088       0.74995786      -0.27751023       0.04520810
Cu       1.54193587       2.36058730       0.50784814      -0.27152783       4.51682797       6.66400294       1.24293137       0.57108384      -0.05973887       0.03914988
Cu       0.01203783       0.67039385       3.18397695      -1.15525531       3.91064408      -4.37394437      -1.97127771      -2.16821313       0.52700305       0.06062102
Cu      -0.27678956       2.25705995       4.61878823       3.87936023      -2.31581802      -5.84964607       0.83326936       0.13980603       1.39943194       0.05192518
Cu       1.54120356       0.11707596       4.88066998      -1.23442182      -5.50913053       3.64913941      -1.23289788       0.44874918       1.55430043       0.04760861
Cu       1.96127059       1.81890029       3.30464454      -1.99915318      -1.64106640       1.97891994       0.39539152       2.26560688      -0.43812177       0.03864110
Cu      -0.11696173       0.04044558       8.35486726      -5.82731199      -6.32360229      -1.60916218      -0.90400112       1.20333469      -1.40351856       0.04547644
Cu       0.19379410       2.29604687       9.38180367       2.29986815       4.90222507      -0.95394861      -1.15586483      -0.99303019      -0.23177490       0.04651475
Cu       1.59775869       0.17857801       9.69745890      -4.18015289      -4.02921840       2.74245217       1.41470063       0.65494841       1.42453909       0.04932630
Cu       1.60398405       1.55855135       7.27500277       1.30778309       3.47487345       1.61652760      -0.37410069      -0.31666040       0.47153184       0.03076100
Cu      -0.52518853       4.01945088       0.24403379      -2.22957093      -1.70866812       4.07298786       1.43614995      -0.41107351       0.11190873       0.05256283
Cu      -0.46810950       5.80749226       1.72894465       1.53207483      -1.72932304      -6.74611273       0.42724627      -0.63294989      -0.59052831       0.04722738
Cu       2.39673628       4.42630257       1.95284448       2.54885881       2.07857870      -0.83179714      -1.00682151      -0.61451399       1.29310274       0.04412854
Cu       1.81294731       5.07039148      -0.02586779       2.82202465       0.26429704      -2.11769787      -1.10251951       1.80041289      -0.70645237       0.03936207
Cu       0.15543223       4.35527289       3.51191377      -0.55125483       4.31407905       3.78922621       0.04519242      -1.93760490      -2.04261303       0.04143965
Cu       0.18396896       5.46082412       5.38883125      -0.34413762      -0.22037780      -2.47345952       0.10984397       0.39819658       2.90927601       0.04512858
Cu       1.66224436       3.05203922       5.48893506      -0.33347703      -1.50925777      -3.39537666       0.72910428       1.15918970      -0.16600901       0.04093051
Cu       2.26093898       5.00370032       4.23461944       1.48445748       1.16636480       5.09921218      -1.08491290       1.39374924       0.10658374       0.04976082
Cu      -0.21085077       3.07859668       7.06140257       5.75349377      -0.52674303       2.27140528       4.25365400       0.79285020       2.41531062       0.05036008
Cu       0.00490233       5.10057868       9.19538472      -3.53885631      -6.17881315       0.70865682      -0.45366058       0.14466119       2.36121130       0.05777442
Cu       1.92968714       3.59747780       9.12944448       4.61507693      -1.74204063       2.49151544       2.20510650      -0.67008460      -0.96067244       0.04205012
Cu       1.08994605       5.17591790       7.50090545       1.29935993      -4.03729195       5.21061052       3.55710387       0.30667084      -3.25318980       0.03888786
Cu      -0.34849210       6.93101610      -0.43307388       1.63745041       4.88347724       5.23155904       1.06973493       0.53065807      -0.22846001       0.04729760
Cu       0.36726649       7.95552788       1.42701457      -0.19338286       1.03180880       1.56849007      -2.64619541      -0.90609682       1.40368187       0.04947340
Cu       2.20420139       6.76522487       2.53104904       1.21115413       0.00150833       0.69347136      -1.31539309      -0.28760022      -0.17081146       0.03629684
Cu       1.98516544       8.88438008       0.57784305       8.32113996       5.15879855       5.44793485       2.69279146      -0.99879116      -0.82347059       0.05143511
Cu      -0.20952023       6.84401974       3.77356347      -4.33191111       0.03848890      -0.60048835       0.67443109       1.91558814      -0.72171956       0.04714084
Cu       0.00512585       9.73868507       6.04895820       2.09702697      -3.93975893       1.93068912       2.05591607      -0.74377203      -0.84400761       0.05045533
Cu       1.59073327       7.77124347       5.30001797      -6.04280298       3.77555575      -3.05569975      -0.67018652      -0.21355453      -0.75791246       0.02455854
Cu       0.59398384       9.37787280       3.14949835       5.69808308       0.49449429      -1.69655574       5.04886675      -0.59165561       0.23163044       0.04191995
Cu       0.25759846       7.50505238       7.69415752      -1.08591192      -4.66528874      -8.91975789      -0.70773017      -3.02942014       2.26245642       0.04709041
Cu       0.19037642       9.15832116       9.92896376       1.95609782       2.10330106      -4.17870760      -0.24886075      -0.52515769      -0.63918853       0.04375279
Cu       2.03385370       7.33234591       9.24152434      -2.79553235      -0.12132831       2.84074852      -0.29187781      -1.00355065       0.91280353       0.03696036
Cu       1.51033247       9.14009476       7.67898780       2.32947547       4.38716543      -4.30358651       2.35827255       3.53348446       0.69894433       0.05069315
Cu       3.44166766      -0.27850847       0.76877967       2.95672888      -3.67078255       0.22338454       0.57831359       1.21622694       0.38570133       0.04332268
Cu       3.76005623       2.61917158       2.00514396      -1.05288677      -3.32798766       0.61035841      -0.54621196      -1.37025619      -1.31462908       0.04511499
Cu       5.20215168      -0.41797722       2.22644989      -0.22663305       3.19959625       4.32154658       1.62428927       0.33002856      -0.58064097       0.04048514
Cu       5.79201727       1.94717132       0.41107719      -5.02387584      -2.20935396       2.73568800      -0.63299572      -1.65279949      -1.62850094       0.03219056
Cu       3.12978143      -0.12640363       3.35692651       7.13468204       4.20762330      -2.64648207       1.14698625      -1.19688785      -0.84858954       0.03873944
Cu       3.40219008       1.35520607       5.62635913      -0.27386824       2.21579088      -0.07210235       0.17298764       0.18552792      -0.74939495       0.04376304
Cu       5.68165430       0.25082791       5.19298834      -7.72657149      -3.24486020       1.58736710      -1.88151193      -2.07139015       0.46735853       0.05059266
Cu       4.98704946       1.56663255       3.63053750      -4.19047096       0.29345484      -1.15974921       0.20702809       1.45446026      -0.67579240       0.03668582
Cu       3.23869222       0.14051567       8.04166149      -3.26126216       3.02169391      -7.66714816      -0.83127773       1.08593833      -0.53216749       0.04445052
Cu       3.39778970       1.70398517      10.35020787       1.15216189       1.37919923       9.02429665       1.50532234       0.47230136      -1.24392581       0.03402889
Cu       5.19394497       0.08029369       9.55411562      -0.46091204       2.20096266       1.50266361       0.95143104       1.65138400       0.91382313       0.04082835
Cu       5.13940826       1.23764929       7.09121762      -4.60346166      -3.72490780      -8.76073063      -1.13549542       0.70760250       2.30644941       0.05689347
Cu       4.02827586       4.18901044       0.10595936      -3.56386149       8.25351297       1.76653269      -1.24103820      -2.12700295      -0.91321623       0.04544747
Cu       4.44548318       5.62798633       2.26170393      -3.12386127       1.59190192      -9.29682910      -0.15349495       0.10681356       1.43517280       0.04423738
Cu       5.84827993       3.51860997       1.93798552      -4.11238513       2.98999914      -0.44081614       1.43554854       1.80976713       1.48793674       0.03613067
Cu       5.55492221       5.64416619       0.35844816       6.06173797      -0.82816108       1.60057142       2.42588377       1.78329885       0.24861813       0.04835141
Cu       4.12142470       3.93458690       4.01757745       2.67360458       1.90480259       3.28018100       1.72716439      -0.86634856       0.53374857       0.03179681
Cu       3.40232568       5.61800233       6.14140084      -6.46939231      -1.49714559      -4.10781594       0.10668481      -0.92336535      -0.36653680       0.04363632
Cu       5.58085726       3.23270040       5.94499646      -5.39812109       0.68986447       5.02697473      -1.73677254       0.88949215      -1.85001898       0.04444063
Cu       6.24314234       5.61268676       4.43618380       1.54572753      -2.29984959      -1.56942576      -2.98811531      -2.07621837       0.21186778       0.03744364
Cu       3.55828773       3.50838090       7.04164772       3.37749837      -1.50113069       0.23105799      -0.83722019      -0.94816488       0.52924210       0.03524810
Cu       3.57308877       5.42954523       8.57514939      -6.91434815       0.47928097       0.24052463       0.21250027      -0.00829410       0.72302085       0.02976727
Cu       5.10823736       3.09539462       8.91620296      -1.93707108       0.91959176       0.95309499      -4.46688223       2.62677145       0.25399622       0.03729892
Cu       5.80329506       5.37091700       6.95417441       1.63688785      -0.47433447       5.30992706      -1.77365267      -1.60552692      -0.77212751       0.05348468
Cu       3.54105044       6.79815729       0.22143578       2.46052300      -0.32258918      -4.41623618      -0.29938012       0.78555399       0.04199679       0.03088355
Cu       3.72432235       8.44609647       2.39227711       3.96321765       5.39722204      -3.54583241      -2.46453571       1.34802520      -1.30729342       0.04643810
Cu       5.75642902       7.80381811       2.23405599       1.29153459      -5.36785389      -1.07542314       1.39220810      -1.07041466      -1.92615962       0.04505503
Cu       5.19044421       8.84698147      -0.11095750      10.32804286       2.57538338      -5.94637744       0.07229871      -1.34238720       1.31354618       0.03956497
Cu       3.90753392       6.97062535       4.24465276       8.12944244      -3.24143574       4.93445702      -0.12879503      -0.39353186       0.19558793       0.04172301
Cu       3.22655388       9.56449792       5.73542088       7.71571705      -3.91702746       2.80611216       0.86011136       0.23660652      -0.02875850       0.02929699
Cu       5.21566223       7.37475654       6.15955876       1.81133252      -5.70515215      -0.71137832      -0.56313974       2.14749146      -3.16508198       0.05098128
Cu       5.17329344       9.00152071       4.11108951      -5.50056551       1.54955958       0.82224571       0.60690653       0.62616104       1.93075931       0.04515910
Cu       3.10029408       7.59593271       7.07967281      -4.63314713       0.89981896      -0.30891324      -0.23108953       0.46854654       1.04577112       0.05022418
Cu       3.39803154       9.25036115       9.63127260       1.65950922      -1.76078934       0.95828018      -1.50478411      -0.47038022      -1.71529138       0.05385268
Cu       5.09702509       7.41638840       8.35512113       1.13701012      -8.37809713       0.02653636      -0.15619135      -1.28586340       3.03139782       0.04450119
Cu       4.92245857       9.58523375       7.77997896      -0.06657824       0.66096383      -0.66079956       0.98301357      -0.75654697      -2.52159786       0.04184628
Cu       7.08230434      -0.87645754       0.28904750      -0.83820756      -0.45260903      -5.26733284      -3.17725015       1.17794979       3.02493501       0.04594433
Cu       7.15409404       1.26019971       2.20292354       0.48279350       0.86609827       1.05394831      -3.67472172      -0.37704611       0.35587746       0.04588449
Cu       8.88911456      -0.05735022       1.83567307       1.16656513       0.23206835       1.34167609       2.31683517      -1.06857908       0.14277777       0.04875362
Cu       8.75494052       1.94807741       0.63688073      -1.60326305      -3.41296808       1.09253969      -2.88948750       1.52629519      -2.22630930       0.04753423
Cu       7.68460115      -0.00086572       4.45095118      -6.77049646      -5.39040152       3.42000367       2.45657444       2.02748990      -1.96147084       0.04516149
Cu       7.28206114       1.84568040       6.02117080       1.23768251      -5.18235193       0.24535591       1.87191284       1.27398241      -3.04775190       0.05928290
Cu       9.51761364       0.48904709       5.90198565      -2.79037204      -0.64618559       1.80508896      -1.06731582       1.41085482      -1.50246882       0.04147887
Cu       8.89519336       2.12408109       3.11784091      -2.41966617       1.59055308      -5.65202381      -0.29318625       0.63789392       1.79947388       0.05236053
Cu       7.14113534       0.11676152       7.19711104      -1.39122162      -3.25474241      -4.93536151       0.11164129      -2.71477318       1.93109024       0.05753875
Cu       6.75363011       2.02719709       8.74021013      -0.20995186      -2.10102563       9.20163424       4.08439112      -3.10563755       0.66918796       0.04869342
Cu       8.00709600       0.02294513       9.49670883       3.18478655      -3.11917832      -9.40917741       1.52319849       1.89225721      -1.83877707       0.03878427
Cu       9.03002445       1.83149497       7.57468996      -0.78980025       2.39756828      -2.14849984      -1.88683093      -1.34355950       2.66852450       0.05108714
Cu       6.93511634       3.88982819      -0.47205020       1.18926081       4.71058848      -1.76245280       1.68099833      -2.83870649       2.84955382       0.04709762
Cu       7.30378866       6.04484831       2.12860546       0.83865552      -4.03019711       6.43798842      -2.64881754      -2.06568718      -1.57902217       0.04703367
Cu       8.55192122       4.05548853       1.60306141       1.77635326      -5.90129579      -3.32476162      -1.52145410      -0.29258487       0.81209469       0.04537630
Cu       8.58820457       5.80245155      -0.10450714      -5.66701574      -0.65183616       0.84911587      -0.54279792      -1.32985222       0.01791643       0.04450977
Cu       7.39328806       3.64487818       4.13504102       0.06033692       3.68490027       4.16417290      -0.96028042      -1.24185395       0.06932423       0.03012788
Cu       8.26705007       5.97227574       5.61550128      -1.04344600      -0.11679869      -0.36013155       1.75787950      -2.04905367      -1.31461287       0.04947257
Cu       9.36570238       3.78998454       5.65265670      -0.85888543       6.29523184       4.46766519      -3.95346546       1.60307121      -2.11481380       0.04918301
Cu       8.82985891       5.34065686       3.56426107       0.95150552       3.85234432      -2.42659216       1.09449816      -0.25493449       0.14163232       0.05644643
Cu       7.34177655       3.71132417       7.29438980      -3.09116621      -7.68367986       3.66181184       1.99779987       1.87406838       0.85576344       0.04467273
Cu       6.40991248       5.38700272       9.08803478       2.11903036      -2.32876101       1.59498385       0.14863381       2.82655621      -2.08679390       0.03942251
Cu       9.09202932       3.64262193       9.20056326      -5.71588035       2.28094342      -2.27175834      -2.04750323      -0.51631802      -0.63890904       0.04117250
Cu       9.45143812       5.52633642       7.51994152      -1.11597984       6.42960942      -5.90384073      -0.70666724      -0.38850620      -0.71758312       0.04412103
Cu       7.03168276       7.41398032      -0.22450534      -3.86856672      -0.01249673       3.79301995      -0.43543398       0.25516587       0.39950085       0.04253113
Cu       7.47121642       9.35738755       2.77153467      -3.34736512      -3.84009664      -1.11055203      -1.68330240       0.08574784      -0.48239809       0.05059731
Cu       8.76435048       7.60628412       2.01134528      -2.19602837      -1.21872311       2.08672037       1.57808781       0.70138425      -0.61449063       0.04611051
Cu       8.89739508       8.96502863       0.04670888       6.18824960       2.48146393      -4.79142087       2.64931226      -1.26023126      -0.48887926       0.04298389
Cu       7.23414147       7.41677083       4.06302516      -6.00514732      -1.15685928       1.97307556       1.37781644       2.38503027       0.33713391       0.05065000
Cu       7.41686261       9.09787855       5.69253616       5.33349653       2.02386900       0.82409501      -0.07806805      -1.19680142       0.97067928       0.03500152
Cu       9.84037838       7.82109593       6.08658041       0.35010573       1.58862362      -0.31682766      -3.07387757      -1.61329222      -2.54360461       0.04433513
Cu       9.60500075       8.98352698       3.79723214       4.61914693      -0.05201335      -1.05838694      -4.16835642       0.19493544       2.22907162       0.03787506
Cu       7.25207561       7.09619183       6.96887497       4.05713643       3.72327849      -3.67957161       0.75548494       2.24867034       3.27132344       0.05102706
Cu       7.01085102       8.80191988       8.65569693       6.66506156       1.24679951       0.21675724      -0.28395766       0.94109774       0.26750913       0.04531002
Cu       8.82947501       7.35170171       8.85184498      -0.10446279       0.56107463      -1.18862120       0.03615940       0.45608431      -0.36666879       0.03928554
Cu       9.03508773       9.66170201       7.59458525       3.56483390       3.79170807      -5.04729831      -0.55149645      -1.58739519       0.40288764       0.04463637
