  40  40   1   0
  0.5052245E+02  0.8665594E-09  0.8665594E-09  0.3107543E-08  0.5000000E-15
   1.0000000000000000E-004
  CAR 
 Cu-Ag alloy CO adsorption (RPBE, matches
      7.03636525    -26.97185044  301     -0.05139934      1.00000000
    -26.972  0.0000E+00  0.0000E+00
    -26.858  0.0000E+00  0.0000E+00
    -26.745  0.0000E+00  0.0000E+00
    -26.632  0.0000E+00  0.0000E+00
    -26.518  0.0000E+00  0.0000E+00
    -26.405  0.0000E+00  0.0000E+00
    -26.292  0.0000E+00  0.0000E+00
    -26.178  0.0000E+00  0.0000E+00
    -26.065  0.0000E+00  0.0000E+00
    -25.952  0.6682E-14  0.7575E-15
    -25.838  0.3694E-09  0.4187E-10
    -25.725  0.1680E-05  0.1905E-06
    -25.612  0.6575E-03  0.7473E-04
    -25.498  0.2428E-01  0.2827E-02
    -25.385  0.9869E-01  0.1401E-01
    -25.271  0.4985E-01  0.1967E-01
    -25.158  0.2929E-02  0.2000E-01
    -25.045  0.1702E-04  0.2000E-01
    -24.931  0.8719E-08  0.2000E-01
    -24.818  0.3720E-12  0.2000E-01
    -24.705  0.0000E+00  0.2000E-01
    -24.591  0.0000E+00  0.2000E-01
    -24.478  0.0000E+00  0.2000E-01
    -24.365  0.0000E+00  0.2000E-01
    -24.251  0.0000E+00  0.2000E-01
    -24.138  0.0000E+00  0.2000E-01
    -24.024  0.0000E+00  0.2000E-01
    -23.911  0.0000E+00  0.2000E-01
    -23.798  0.0000E+00  0.2000E-01
    -23.684  0.0000E+00  0.2000E-01
    -23.571  0.0000E+00  0.2000E-01
    -23.458  0.0000E+00  0.2000E-01
    -23.344  0.0000E+00  0.2000E-01
    -23.231  0.0000E+00  0.2000E-01
    -23.118  0.0000E+00  0.2000E-01
    -23.004  0.0000E+00  0.2000E-01
    -22.891  0.0000E+00  0.2000E-01
    -22.778  0.0000E+00  0.2000E-01
    -22.664  0.0000E+00  0.2000E-01
    -22.551  0.0000E+00  0.2000E-01
    -22.437  0.0000E+00  0.2000E-01
    -22.324  0.0000E+00  0.2000E-01
    -22.211  0.0000E+00  0.2000E-01
    -22.097  0.0000E+00  0.2000E-01
    -21.984  0.0000E+00  0.2000E-01
    -21.871  0.0000E+00  0.2000E-01
    -21.757  0.0000E+00  0.2000E-01
    -21.644  0.0000E+00  0.2000E-01
    -21.531  0.0000E+00  0.2000E-01
    -21.417  0.0000E+00  0.2000E-01
    -21.304  0.0000E+00  0.2000E-01
    -21.190  0.0000E+00  0.2000E-01
    -21.077  0.0000E+00  0.2000E-01
    -20.964  0.0000E+00  0.2000E-01
    -20.850  0.0000E+00  0.2000E-01
    -20.737  0.0000E+00  0.2000E-01
    -20.624  0.0000E+00  0.2000E-01
    -20.510  0.0000E+00  0.2000E-01
    -20.397  0.0000E+00  0.2000E-01
    -20.284  0.0000E+00  0.2000E-01
    -20.170  0.0000E+00  0.2000E-01
    -20.057  0.0000E+00  0.2000E-01
    -19.943  0.0000E+00  0.2000E-01
    -19.830  0.0000E+00  0.2000E-01
    -19.717  0.0000E+00  0.2000E-01
    -19.603  0.0000E+00  0.2000E-01
    -19.490  0.0000E+00  0.2000E-01
    -19.377  0.0000E+00  0.2000E-01
    -19.263  0.0000E+00  0.2000E-01
    -19.150  0.0000E+00  0.2000E-01
    -19.037  0.0000E+00  0.2000E-01
    -18.923  0.0000E+00  0.2000E-01
    -18.810  0.0000E+00  0.2000E-01
    -18.697  0.0000E+00  0.2000E-01
    -18.583  0.0000E+00  0.2000E-01
    -18.470  0.0000E+00  0.2000E-01
    -18.356  0.0000E+00  0.2000E-01
    -18.243  0.0000E+00  0.2000E-01
    -18.130  0.0000E+00  0.2000E-01
    -18.016  0.0000E+00  0.2000E-01
    -17.903  0.0000E+00  0.2000E-01
    -17.790  0.0000E+00  0.2000E-01
    -17.676  0.0000E+00  0.2000E-01
    -17.563  0.0000E+00  0.2000E-01
    -17.450  0.0000E+00  0.2000E-01
    -17.336  0.0000E+00  0.2000E-01
    -17.223  0.0000E+00  0.2000E-01
    -17.109  0.0000E+00  0.2000E-01
    -16.996  0.0000E+00  0.2000E-01
    -16.883  0.0000E+00  0.2000E-01
    -16.769  0.0000E+00  0.2000E-01
    -16.656  0.0000E+00  0.2000E-01
    -16.543  0.0000E+00  0.2000E-01
    -16.429  0.0000E+00  0.2000E-01
    -16.316  0.0000E+00  0.2000E-01
    -16.203  0.0000E+00  0.2000E-01
    -16.089  0.0000E+00  0.2000E-01
    -15.976  0.0000E+00  0.2000E-01
    -15.862  0.0000E+00  0.2000E-01
    -15.749  0.0000E+00  0.2000E-01
    -15.636  0.0000E+00  0.2000E-01
    -15.522  0.0000E+00  0.2000E-01
    -15.409  0.0000E+00  0.2000E-01
    -15.296  0.0000E+00  0.2000E-01
    -15.182  0.0000E+00  0.2000E-01
    -15.069  0.0000E+00  0.2000E-01
    -14.956  0.0000E+00  0.2000E-01
    -14.842  0.0000E+00  0.2000E-01
    -14.729  0.0000E+00  0.2000E-01
    -14.616  0.0000E+00  0.2000E-01
    -14.502  0.0000E+00  0.2000E-01
    -14.389  0.0000E+00  0.2000E-01
    -14.275  0.0000E+00  0.2000E-01
    -14.162  0.0000E+00  0.2000E-01
    -14.049  0.0000E+00  0.2000E-01
    -13.935  0.0000E+00  0.2000E-01
    -13.822  0.0000E+00  0.2000E-01
    -13.709  0.0000E+00  0.2000E-01
    -13.595  0.0000E+00  0.2000E-01
    -13.482  0.0000E+00  0.2000E-01
    -13.369  0.0000E+00  0.2000E-01
    -13.255  0.0000E+00  0.2000E-01
    -13.142  0.0000E+00  0.2000E-01
    -13.028  0.0000E+00  0.2000E-01
    -12.915  0.0000E+00  0.2000E-01
    -12.802  0.0000E+00  0.2000E-01
    -12.688  0.0000E+00  0.2000E-01
    -12.575  0.0000E+00  0.2000E-01
    -12.462  0.0000E+00  0.2000E-01
    -12.348  0.0000E+00  0.2000E-01
    -12.235  0.0000E+00  0.2000E-01
    -12.122  0.0000E+00  0.2000E-01
    -12.008  0.0000E+00  0.2000E-01
    -11.895  0.0000E+00  0.2000E-01
    -11.782  0.0000E+00  0.2000E-01
    -11.668  0.0000E+00  0.2000E-01
    -11.555  0.0000E+00  0.2000E-01
    -11.441  0.0000E+00  0.2000E-01
    -11.328  0.0000E+00  0.2000E-01
    -11.215  0.0000E+00  0.2000E-01
    -11.101  0.0000E+00  0.2000E-01
    -10.988  0.4220E-14  0.2000E-01
    -10.875  0.2577E-09  0.2000E-01
    -10.761  0.1290E-05  0.2000E-01
    -10.648  0.5531E-03  0.2006E-01
    -10.535  0.2222E-01  0.2258E-01
    -10.421  0.9740E-01  0.3362E-01
    -10.308  0.5289E-01  0.3962E-01
    -10.194  0.3350E-02  0.4000E-01
    -10.081  0.2103E-04  0.4000E-01
     -9.968  0.1165E-07  0.4000E-01
     -9.854  0.5366E-12  0.4000E-01
     -9.741  0.0000E+00  0.4000E-01
     -9.628  0.0000E+00  0.4000E-01
     -9.514  0.0000E+00  0.4000E-01
     -9.401  0.0000E+00  0.4000E-01
     -9.288  0.0000E+00  0.4000E-01
     -9.174  0.0000E+00  0.4000E-01
     -9.061  0.0000E+00  0.4000E-01
     -8.947  0.0000E+00  0.4000E-01
     -8.834  0.0000E+00  0.4000E-01
     -8.721  0.0000E+00  0.4000E-01
     -8.607  0.0000E+00  0.4000E-01
     -8.494  0.2329E-15  0.4000E-01
     -8.381  0.2626E-10  0.4000E-01
     -8.267  0.2503E-06  0.4000E-01
     -8.154  0.2093E-03  0.4002E-01
     -8.041  0.1673E-01  0.4192E-01
     -7.927  0.1469E+00  0.5857E-01
     -7.814  0.1647E+00  0.7725E-01
     -7.701  0.2386E-01  0.7996E-01
     -7.587  0.3913E-03  0.8000E-01
     -7.474  0.3344E-03  0.8004E-01
     -7.360  0.5260E-02  0.8063E-01
     -7.247  0.3326E-01  0.8441E-01
     -7.134  0.8457E-01  0.9399E-01
     -7.020  0.6607E-01  0.1015E+00
     -6.907  0.2267E-01  0.1041E+00
     -6.794  0.6438E-02  0.1048E+00
     -6.680  0.1953E-01  0.1070E+00
     -6.567  0.2532E-01  0.1099E+00
     -6.454  0.1890E-01  0.1120E+00
     -6.340  0.1554E-01  0.1138E+00
     -6.227  0.6079E-01  0.1207E+00
     -6.113  0.1726E+00  0.1402E+00
     -6.000  0.3118E+00  0.1756E+00
     -5.887  0.4421E+00  0.2257E+00
     -5.773  0.5568E+00  0.2888E+00
     -5.660  0.6309E+00  0.3603E+00
     -5.547  0.5349E+00  0.4210E+00
     -5.433  0.4932E+00  0.4769E+00
     -5.320  0.5108E+00  0.5348E+00
     -5.207  0.4280E+00  0.5833E+00
     -5.093  0.4263E+00  0.6317E+00
     -4.980  0.4968E+00  0.6880E+00
     -4.867  0.4975E+00  0.7444E+00
     -4.753  0.5737E+00  0.8094E+00
     -4.640  0.6841E+00  0.8870E+00
     -4.526  0.6975E+00  0.9660E+00
     -4.413  0.6855E+00  0.1044E+01
     -4.300  0.6110E+00  0.1113E+01
     -4.186  0.5800E+00  0.1179E+01
     -4.073  0.6144E+00  0.1248E+01
     -3.960  0.5977E+00  0.1316E+01
     -3.846  0.6077E+00  0.1385E+01
     -3.733  0.6091E+00  0.1454E+01
     -3.620  0.6099E+00  0.1523E+01
     -3.506  0.6187E+00  0.1593E+01
     -3.393  0.6150E+00  0.1663E+01
     -3.279  0.5786E+00  0.1729E+01
     -3.166  0.7123E+00  0.1809E+01
     -3.053  0.6655E+00  0.1885E+01
     -2.939  0.4853E+00  0.1940E+01
     -2.826  0.1762E+00  0.1960E+01
     -2.713  0.3028E-01  0.1963E+01
     -2.599  0.3161E-01  0.1967E+01
     -2.486  0.4483E-01  0.1972E+01
     -2.373  0.4142E-01  0.1977E+01
     -2.259  0.4216E-01  0.1981E+01
     -2.146  0.3272E-01  0.1985E+01
     -2.032  0.1941E-01  0.1987E+01
     -1.919  0.2574E-01  0.1990E+01
     -1.806  0.8034E-01  0.1999E+01
     -1.692  0.6891E-01  0.2007E+01
     -1.579  0.3074E-01  0.2011E+01
     -1.466  0.2364E-01  0.2013E+01
     -1.352  0.2655E-01  0.2016E+01
     -1.239  0.6165E-01  0.2023E+01
     -1.126  0.6818E-01  0.2031E+01
     -1.012  0.4020E-01  0.2036E+01
     -0.899  0.3299E-01  0.2039E+01
     -0.786  0.3582E-01  0.2043E+01
     -0.672  0.3027E-01  0.2047E+01
     -0.559  0.4018E-01  0.2051E+01
     -0.445  0.3357E-01  0.2055E+01
     -0.332  0.5122E-01  0.2061E+01
     -0.219  0.8266E-01  0.2070E+01
     -0.105  0.6150E-01  0.2077E+01
      0.008  0.4631E-01  0.2083E+01
      0.121  0.5351E-01  0.2089E+01
      0.235  0.6030E-01  0.2095E+01
      0.348  0.9634E-01  0.2106E+01
      0.461  0.9494E-01  0.2117E+01
      0.575  0.7308E-01  0.2125E+01
      0.688  0.6400E-01  0.2133E+01
      0.802  0.3210E-01  0.2136E+01
      0.915  0.3606E-01  0.2140E+01
      1.028  0.4948E-01  0.2146E+01
      1.142  0.7224E-01  0.2154E+01
      1.255  0.7999E-01  0.2163E+01
      1.368  0.1006E+00  0.2175E+01
      1.482  0.8952E-01  0.2185E+01
      1.595  0.1014E+00  0.2196E+01
      1.708  0.8168E-01  0.2206E+01
      1.822  0.7949E-01  0.2215E+01
      1.935  0.6945E-01  0.2222E+01
      2.048  0.6604E-01  0.2230E+01
      2.162  0.6598E-01  0.2237E+01
      2.275  0.4437E-01  0.2242E+01
      2.389  0.7589E-01  0.2251E+01
      2.502  0.9590E-01  0.2262E+01
      2.615  0.9964E-01  0.2273E+01
      2.729  0.6776E-01  0.2281E+01
      2.842  0.5464E-01  0.2287E+01
      2.955  0.2306E-01  0.2290E+01
      3.069  0.1786E-01  0.2292E+01
      3.182  0.8091E-02  0.2293E+01
      3.295  0.1860E-01  0.2295E+01
      3.409  0.3685E-01  0.2299E+01
      3.522  0.8861E-01  0.2309E+01
      3.636  0.9825E-01  0.2320E+01
      3.749  0.6213E-01  0.2327E+01
      3.862  0.8666E-01  0.2337E+01
      3.976  0.1042E+00  0.2349E+01
      4.089  0.7673E-01  0.2358E+01
      4.202  0.7476E-01  0.2366E+01
      4.316  0.1022E+00  0.2378E+01
      4.429  0.9458E-01  0.2388E+01
      4.542  0.6609E-01  0.2396E+01
      4.656  0.1156E+00  0.2409E+01
      4.769  0.1482E+00  0.2426E+01
      4.883  0.1540E+00  0.2443E+01
      4.996  0.1319E+00  0.2458E+01
      5.109  0.1111E+00  0.2471E+01
      5.223  0.6893E-01  0.2479E+01
      5.336  0.3734E-01  0.2483E+01
      5.449  0.3456E-01  0.2487E+01
      5.563  0.2523E-01  0.2490E+01
      5.676  0.3976E-02  0.2490E+01
      5.789  0.7938E-04  0.2490E+01
      5.903  0.1692E-06  0.2490E+01
      6.016  0.3438E-10  0.2490E+01
      6.129  0.6133E-15  0.2490E+01
      6.243  0.0000E+00  0.2490E+01
      6.356  0.0000E+00  0.2490E+01
      6.470  0.0000E+00  0.2490E+01
      6.583  0.0000E+00  0.2490E+01
      6.696  0.0000E+00  0.2490E+01
      6.810  0.0000E+00  0.2490E+01
      6.923  0.0000E+00  0.2490E+01
      7.036  0.0000E+00  0.2490E+01
      7.03636525    -26.97185044  301     -0.05139934      1.00000000
    -26.972  0.0000E+00  0.0000E+00  0.0000E+00  0.0000E+00  0.0000E+00  0.0000E+00  0.0000E+00  0.0000E+00  0.0000E+00
    -26.858  0.0000E+00  0.0000E+00  0.0000E+00  0.0000E+00  0.0000E+00  0.0000E+00  0.0000E+00  0.0000E+00  0.0000E+00
    -26.745  0.0000E+00  0.0000E+00  0.0000E+00  0.0000E+00  0.0000E+00  0.0000E+00  0.0000E+00  0.0000E+00  0.0000E+00
    -26.632  0.0000E+00  0.0000E+00  0.0000E+00  0.0000E+00  0.0000E+00  0.0000E+00  0.0000E+00  0.0000E+00  0.0000E+00
    -26.518  0.0000E+00  0.0000E+00  0.0000E+00  0.0000E+00  0.0000E+00  0.0000E+00  0.0000E+00  0.0000E+00  0.0000E+00
    -26.405  0.0000E+00  0.0000E+00  0.0000E+00  0.0000E+00  0.0000E+00  0.0000E+00  0.0000E+00  0.0000E+00  0.0000E+00
    -26.292  0.0000E+00  0.0000E+00  0.0000E+00  0.0000E+00  0.0000E+00  0.0000E+00  0.0000E+00  0.0000E+00  0.0000E+00
    -26.178  0.0000E+00  0.0000E+00  0.0000E+00  0.0000E+00  0.0000E+00  0.0000E+00  0.0000E+00  0.0000E+00  0.0000E+00
    -26.065  0.0000E+00  0.0000E+00  0.0000E+00  0.0000E+00  0.0000E+00  0.0000E+00  0.0000E+00  0.0000E+00  0.0000E+00
    -25.952  0.2515E-25  0.1390E-23  0.3992E-23  0.1390E-23  0.1768E-23  0.1276E-23  0.9041E-23  0.1276E-23  0.1768E-23
    -25.838  0.1385E-20  0.7483E-19  0.2252E-18  0.7483E-19  0.9568E-19  0.7527E-19  0.4767E-18  0.7527E-19  0.9568E-19
    -25.725  0.6275E-17  0.3308E-15  0.1046E-14  0.3308E-15  0.4256E-15  0.3648E-15  0.2058E-14  0.3648E-15  0.4256E-15
    -25.612  0.2447E-14  0.1257E-12  0.4179E-12  0.1257E-12  0.1628E-12  0.1517E-12  0.7618E-12  0.1517E-12  0.1628E-12
    -25.498  0.9007E-13  0.4502E-11  0.1574E-10  0.4502E-11  0.5877E-11  0.5924E-11  0.2655E-10  0.5924E-11  0.5877E-11
    -25.385  0.3650E-12  0.1778E-10  0.6519E-10  0.1778E-10  0.2337E-10  0.2531E-10  0.1019E-09  0.2531E-10  0.2337E-10
    -25.271  0.1839E-12  0.8718E-11  0.3353E-10  0.8718E-11  0.1155E-10  0.1340E-10  0.4845E-10  0.1340E-10  0.1155E-10
    -25.158  0.1077E-13  0.4959E-12  0.2008E-11  0.4959E-12  0.6627E-12  0.8253E-12  0.2659E-11  0.8253E-12  0.6627E-12
    -25.045  0.6242E-16  0.2781E-14  0.1189E-13  0.2781E-14  0.3752E-14  0.5026E-14  0.1430E-13  0.5026E-14  0.3752E-14
    -24.931  0.3191E-19  0.1374E-17  0.6214E-17  0.1374E-17  0.1873E-17  0.2694E-17  0.6741E-17  0.2694E-17  0.1873E-17
    -24.818  0.1359E-23  0.5652E-22  0.2701E-21  0.5652E-22  0.7787E-22  0.1199E-21  0.2634E-21  0.1199E-21  0.7787E-22
    -24.705  0.0000E+00  0.0000E+00  0.0000E+00  0.0000E+00  0.0000E+00  0.0000E+00  0.0000E+00  0.0000E+00  0.0000E+00
    -24.591  0.0000E+00  0.0000E+00  0.0000E+00  0.0000E+00  0.0000E+00  0.0000E+00  0.0000E+00  0.0000E+00  0.0000E+00
    -24.478  0.0000E+00  0.0000E+00  0.0000E+00  0.0000E+00  0.0000E+00  0.0000E+00  0.0000E+00  0.0000E+00  0.0000E+00
    -24.365  0.0000E+00  0.0000E+00  0.0000E+00  0.0000E+00  0.0000E+00  0.0000E+00  0.0000E+00  0.0000E+00  0.0000E+00
    -24.251  0.0000E+00  0.0000E+00  0.0000E+00  0.0000E+00  0.0000E+00  0.0000E+00  0.0000E+00  0.0000E+00  0.0000E+00
    -24.138  0.0000E+00  0.0000E+00  0.0000E+00  0.0000E+00  0.0000E+00  0.0000E+00  0.0000E+00  0.0000E+00  0.0000E+00
    -24.024  0.0000E+00  0.0000E+00  0.0000E+00  0.0000E+00  0.0000E+00  0.0000E+00  0.0000E+00  0.0000E+00  0.0000E+00
    -23.911  0.0000E+00  0.0000E+00  0.0000E+00  0.0000E+00  0.0000E+00  0.0000E+00  0.0000E+00  0.0000E+00  0.0000E+00
    -23.798  0.0000E+00  0.0000E+00  0.0000E+00  0.0000E+00  0.0000E+00  0.0000E+00  0.0000E+00  0.0000E+00  0.0000E+00
    -23.684  0.0000E+00  0.0000E+00  0.0000E+00  0.0000E+00  0.0000E+00  0.0000E+00  0.0000E+00  0.0000E+00  0.0000E+00
    -23.571  0.0000E+00  0.0000E+00  0.0000E+00  0.0000E+00  0.0000E+00  0.0000E+00  0.0000E+00  0.0000E+00  0.0000E+00
    -23.458  0.0000E+00  0.0000E+00  0.0000E+00  0.0000E+00  0.0000E+00  0.0000E+00  0.0000E+00  0.0000E+00  0.0000E+00
    -23.344  0.0000E+00  0.0000E+00  0.0000E+00  0.0000E+00  0.0000E+00  0.0000E+00  0.0000E+00  0.0000E+00  0.0000E+00
    -23.231  0.0000E+00  0.0000E+00  0.0000E+00  0.0000E+00  0.0000E+00  0.0000E+00  0.0000E+00  0.0000E+00  0.0000E+00
    -23.118  0.0000E+00  0.0000E+00  0.0000E+00  0.0000E+00  0.0000E+00  0.0000E+00  0.0000E+00  0.0000E+00  0.0000E+00
    -23.004  0.0000E+00  0.0000E+00  0.0000E+00  0.0000E+00  0.0000E+00  0.0000E+00  0.0000E+00  0.0000E+00  0.0000E+00
    -22.891  0.0000E+00  0.0000E+00  0.0000E+00  0.0000E+00  0.0000E+00  0.0000E+00  0.0000E+00  0.0000E+00  0.0000E+00
    -22.778  0.0000E+00  0.0000E+00  0.0000E+00  0.0000E+00  0.0000E+00  0.0000E+00  0.0000E+00  0.0000E+00  0.0000E+00
    -22.664  0.0000E+00  0.0000E+00  0.0000E+00  0.0000E+00  0.0000E+00  0.0000E+00  0.0000E+00  0.0000E+00  0.0000E+00
    -22.551  0.0000E+00  0.0000E+00  0.0000E+00  0.0000E+00  0.0000E+00  0.0000E+00  0.0000E+00  0.0000E+00  0.0000E+00
    -22.437  0.0000E+00  0.0000E+00  0.0000E+00  0.0000E+00  0.0000E+00  0.0000E+00  0.0000E+00  0.0000E+00  0.0000E+00
    -22.324  0.0000E+00  0.0000E+00  0.0000E+00  0.0000E+00  0.0000E+00  0.0000E+00  0.0000E+00  0.0000E+00  0.0000E+00
    -22.211  0.0000E+00  0.0000E+00  0.0000E+00  0.0000E+00  0.0000E+00  0.0000E+00  0.0000E+00  0.0000E+00  0.0000E+00
    -22.097  0.0000E+00  0.0000E+00  0.0000E+00  0.0000E+00  0.0000E+00  0.0000E+00  0.0000E+00  0.0000E+00  0.0000E+00
    -21.984  0.0000E+00  0.0000E+00  0.0000E+00  0.0000E+00  0.0000E+00  0.0000E+00  0.0000E+00  0.0000E+00  0.0000E+00
    -21.871  0.0000E+00  0.0000E+00  0.0000E+00  0.0000E+00  0.0000E+00  0.0000E+00  0.0000E+00  0.0000E+00  0.0000E+00
    -21.757  0.0000E+00  0.0000E+00  0.0000E+00  0.0000E+00  0.0000E+00  0.0000E+00  0.0000E+00  0.0000E+00  0.0000E+00
    -21.644  0.0000E+00  0.0000E+00  0.0000E+00  0.0000E+00  0.0000E+00  0.0000E+00  0.0000E+00  0.0000E+00  0.0000E+00
    -21.531  0.0000E+00  0.0000E+00  0.0000E+00  0.0000E+00  0.0000E+00  0.0000E+00  0.0000E+00  0.0000E+00  0.0000E+00
    -21.417  0.0000E+00  0.0000E+00  0.0000E+00  0.0000E+00  0.0000E+00  0.0000E+00  0.0000E+00  0.0000E+00  0.0000E+00
    -21.304  0.0000E+00  0.0000E+00  0.0000E+00  0.0000E+00  0.0000E+00  0.0000E+00  0.0000E+00  0.0000E+00  0.0000E+00
    -21.190  0.0000E+00  0.0000E+00  0.0000E+00  0.0000E+00  0.0000E+00  0.0000E+00  0.0000E+00  0.0000E+00  0.0000E+00
    -21.077  0.0000E+00  0.0000E+00  0.0000E+00  0.0000E+00  0.0000E+00  0.0000E+00  0.0000E+00  0.0000E+00  0.0000E+00
    -20.964  0.0000E+00  0.0000E+00  0.0000E+00  0.0000E+00  0.0000E+00  0.0000E+00  0.0000E+00  0.0000E+00  0.0000E+00
    -20.850  0.0000E+00  0.0000E+00  0.0000E+00  0.0000E+00  0.0000E+00  0.0000E+00  0.0000E+00  0.0000E+00  0.0000E+00
    -20.737  0.0000E+00  0.0000E+00  0.0000E+00  0.0000E+00  0.0000E+00  0.0000E+00  0.0000E+00  0.0000E+00  0.0000E+00
    -20.624  0.0000E+00  0.0000E+00  0.0000E+00  0.0000E+00  0.0000E+00  0.0000E+00  0.0000E+00  0.0000E+00  0.0000E+00
    -20.510  0.0000E+00  0.0000E+00  0.0000E+00  0.0000E+00  0.0000E+00  0.0000E+00  0.0000E+00  0.0000E+00  0.0000E+00
    -20.397  0.0000E+00  0.0000E+00  0.0000E+00  0.0000E+00  0.0000E+00  0.0000E+00  0.0000E+00  0.0000E+00  0.0000E+00
    -20.284  0.0000E+00  0.0000E+00  0.0000E+00  0.0000E+00  0.0000E+00  0.0000E+00  0.0000E+00  0.0000E+00  0.0000E+00
    -20.170  0.0000E+00  0.0000E+00  0.0000E+00  0.0000E+00  0.0000E+00  0.0000E+00  0.0000E+00  0.0000E+00  0.0000E+00
    -20.057  0.0000E+00  0.0000E+00  0.0000E+00  0.0000E+00  0.0000E+00  0.0000E+00  0.0000E+00  0.0000E+00  0.0000E+00
    -19.943  0.0000E+00  0.0000E+00  0.0000E+00  0.0000E+00  0.0000E+00  0.0000E+00  0.0000E+00  0.0000E+00  0.0000E+00
    -19.830  0.0000E+00  0.0000E+00  0.0000E+00  0.0000E+00  0.0000E+00  0.0000E+00  0.0000E+00  0.0000E+00  0.0000E+00
    -19.717  0.0000E+00  0.0000E+00  0.0000E+00  0.0000E+00  0.0000E+00  0.0000E+00  0.0000E+00  0.0000E+00  0.0000E+00
    -19.603  0.0000E+00  0.0000E+00  0.0000E+00  0.0000E+00  0.0000E+00  0.0000E+00  0.0000E+00  0.0000E+00  0.0000E+00
    -19.490  0.0000E+00  0.0000E+00  0.0000E+00  0.0000E+00  0.0000E+00  0.0000E+00  0.0000E+00  0.0000E+00  0.0000E+00
    -19.377  0.0000E+00  0.0000E+00  0.0000E+00  0.0000E+00  0.0000E+00  0.0000E+00  0.0000E+00  0.0000E+00  0.0000E+00
    -19.263  0.0000E+00  0.0000E+00  0.0000E+00  0.0000E+00  0.0000E+00  0.0000E+00  0.0000E+00  0.0000E+00  0.0000E+00
    -19.150  0.0000E+00  0.0000E+00  0.0000E+00  0.0000E+00  0.0000E+00  0.0000E+00  0.0000E+00  0.0000E+00  0.0000E+00
    -19.037  0.0000E+00  0.0000E+00  0.0000E+00  0.0000E+00  0.0000E+00  0.0000E+00  0.0000E+00  0.0000E+00  0.0000E+00
    -18.923  0.0000E+00  0.0000E+00  0.0000E+00  0.0000E+00  0.0000E+00  0.0000E+00  0.0000E+00  0.0000E+00  0.0000E+00
    -18.810  0.0000E+00  0.0000E+00  0.0000E+00  0.0000E+00  0.0000E+00  0.0000E+00  0.0000E+00  0.0000E+00  0.0000E+00
    -18.697  0.0000E+00  0.0000E+00  0.0000E+00  0.0000E+00  0.0000E+00  0.0000E+00  0.0000E+00  0.0000E+00  0.0000E+00
    -18.583  0.0000E+00  0.0000E+00  0.0000E+00  0.0000E+00  0.0000E+00  0.0000E+00  0.0000E+00  0.0000E+00  0.0000E+00
    -18.470  0.0000E+00  0.0000E+00  0.0000E+00  0.0000E+00  0.0000E+00  0.0000E+00  0.0000E+00  0.0000E+00  0.0000E+00
    -18.356  0.0000E+00  0.0000E+00  0.0000E+00  0.0000E+00  0.0000E+00  0.0000E+00  0.0000E+00  0.0000E+00  0.0000E+00
    -18.243  0.0000E+00  0.0000E+00  0.0000E+00  0.0000E+00  0.0000E+00  0.0000E+00  0.0000E+00  0.0000E+00  0.0000E+00
    -18.130  0.0000E+00  0.0000E+00  0.0000E+00  0.0000E+00  0.0000E+00  0.0000E+00  0.0000E+00  0.0000E+00  0.0000E+00
    -18.016  0.0000E+00  0.0000E+00  0.0000E+00  0.0000E+00  0.0000E+00  0.0000E+00  0.0000E+00  0.0000E+00  0.0000E+00
    -17.903  0.0000E+00  0.0000E+00  0.0000E+00  0.0000E+00  0.0000E+00  0.0000E+00  0.0000E+00  0.0000E+00  0.0000E+00
    -17.790  0.0000E+00  0.0000E+00  0.0000E+00  0.0000E+00  0.0000E+00  0.0000E+00  0.0000E+00  0.0000E+00  0.0000E+00
    -17.676  0.0000E+00  0.0000E+00  0.0000E+00  0.0000E+00  0.0000E+00  0.0000E+00  0.0000E+00  0.0000E+00  0.0000E+00
    -17.563  0.0000E+00  0.0000E+00  0.0000E+00  0.0000E+00  0.0000E+00  0.0000E+00  0.0000E+00  0.0000E+00  0.0000E+00
    -17.450  0.0000E+00  0.0000E+00  0.0000E+00  0.0000E+00  0.0000E+00  0.0000E+00  0.0000E+00  0.0000E+00  0.0000E+00
    -17.336  0.0000E+00  0.0000E+00  0.0000E+00  0.0000E+00  0.0000E+00  0.0000E+00  0.0000E+00  0.0000E+00  0.0000E+00
    -17.223  0.0000E+00  0.0000E+00  0.0000E+00  0.0000E+00  0.0000E+00  0.0000E+00  0.0000E+00  0.0000E+00  0.0000E+00
    -17.109  0.0000E+00  0.0000E+00  0.0000E+00  0.0000E+00  0.0000E+00  0.0000E+00  0.0000E+00  0.0000E+00  0.0000E+00
    -16.996  0.0000E+00  0.0000E+00  0.0000E+00  0.0000E+00  0.0000E+00  0.0000E+00  0.0000E+00  0.0000E+00  0.0000E+00
    -16.883  0.0000E+00  0.0000E+00  0.0000E+00  0.0000E+00  0.0000E+00  0.0000E+00  0.0000E+00  0.0000E+00  0.0000E+00
    -16.769  0.0000E+00  0.0000E+00  0.0000E+00  0.0000E+00  0.0000E+00  0.0000E+00  0.0000E+00  0.0000E+00  0.0000E+00
    -16.656  0.0000E+00  0.0000E+00  0.0000E+00  0.0000E+00  0.0000E+00  0.0000E+00  0.0000E+00  0.0000E+00  0.0000E+00
    -16.543  0.0000E+00  0.0000E+00  0.0000E+00  0.0000E+00  0.0000E+00  0.0000E+00  0.0000E+00  0.0000E+00  0.0000E+00
    -16.429  0.0000E+00  0.0000E+00  0.0000E+00  0.0000E+00  0.0000E+00  0.0000E+00  0.0000E+00  0.0000E+00  0.0000E+00
    -16.316  0.0000E+00  0.0000E+00  0.0000E+00  0.0000E+00  0.0000E+00  0.0000E+00  0.0000E+00  0.0000E+00  0.0000E+00
    -16.203  0.0000E+00  0.0000E+00  0.0000E+00  0.0000E+00  0.0000E+00  0.0000E+00  0.0000E+00  0.0000E+00  0.0000E+00
    -16.089  0.0000E+00  0.0000E+00  0.0000E+00  0.0000E+00  0.0000E+00  0.0000E+00  0.0000E+00  0.0000E+00  0.0000E+00
    -15.976  0.0000E+00  0.0000E+00  0.0000E+00  0.0000E+00  0.0000E+00  0.0000E+00  0.0000E+00  0.0000E+00  0.0000E+00
    -15.862  0.0000E+00  0.0000E+00  0.0000E+00  0.0000E+00  0.0000E+00  0.0000E+00  0.0000E+00  0.0000E+00  0.0000E+00
    -15.749  0.0000E+00  0.0000E+00  0.0000E+00  0.0000E+00  0.0000E+00  0.0000E+00  0.0000E+00  0.0000E+00  0.0000E+00
    -15.636  0.0000E+00  0.0000E+00  0.0000E+00  0.0000E+00  0.0000E+00  0.0000E+00  0.0000E+00  0.0000E+00  0.0000E+00
    -15.522  0.0000E+00  0.0000E+00  0.0000E+00  0.0000E+00  0.0000E+00  0.0000E+00  0.0000E+00  0.0000E+00  0.0000E+00
    -15.409  0.0000E+00  0.0000E+00  0.0000E+00  0.0000E+00  0.0000E+00  0.0000E+00  0.0000E+00  0.0000E+00  0.0000E+00
    -15.296  0.0000E+00  0.0000E+00  0.0000E+00  0.0000E+00  0.0000E+00  0.0000E+00  0.0000E+00  0.0000E+00  0.0000E+00
    -15.182  0.0000E+00  0.0000E+00  0.0000E+00  0.0000E+00  0.0000E+00  0.0000E+00  0.0000E+00  0.0000E+00  0.0000E+00
    -15.069  0.0000E+00  0.0000E+00  0.0000E+00  0.0000E+00  0.0000E+00  0.0000E+00  0.0000E+00  0.0000E+00  0.0000E+00
    -14.956  0.0000E+00  0.0000E+00  0.0000E+00  0.0000E+00  0.0000E+00  0.0000E+00  0.0000E+00  0.0000E+00  0.0000E+00
    -14.842  0.0000E+00  0.0000E+00  0.0000E+00  0.0000E+00  0.0000E+00  0.0000E+00  0.0000E+00  0.0000E+00  0.0000E+00
    -14.729  0.0000E+00  0.0000E+00  0.0000E+00  0.0000E+00  0.0000E+00  0.0000E+00  0.0000E+00  0.0000E+00  0.0000E+00
    -14.616  0.0000E+00  0.0000E+00  0.0000E+00  0.0000E+00  0.0000E+00  0.0000E+00  0.0000E+00  0.0000E+00  0.0000E+00
    -14.502  0.0000E+00  0.0000E+00  0.0000E+00  0.0000E+00  0.0000E+00  0.0000E+00  0.0000E+00  0.0000E+00  0.0000E+00
    -14.389  0.0000E+00  0.0000E+00  0.0000E+00  0.0000E+00  0.0000E+00  0.0000E+00  0.0000E+00  0.0000E+00  0.0000E+00
    -14.275  0.0000E+00  0.0000E+00  0.0000E+00  0.0000E+00  0.0000E+00  0.0000E+00  0.0000E+00  0.0000E+00  0.0000E+00
    -14.162  0.0000E+00  0.0000E+00  0.0000E+00  0.0000E+00  0.0000E+00  0.0000E+00  0.0000E+00  0.0000E+00  0.0000E+00
    -14.049  0.0000E+00  0.0000E+00  0.0000E+00  0.0000E+00  0.0000E+00  0.0000E+00  0.0000E+00  0.0000E+00  0.0000E+00
    -13.935  0.0000E+00  0.0000E+00  0.0000E+00  0.0000E+00  0.0000E+00  0.0000E+00  0.0000E+00  0.0000E+00  0.0000E+00
    -13.822  0.0000E+00  0.0000E+00  0.0000E+00  0.0000E+00  0.0000E+00  0.0000E+00  0.0000E+00  0.0000E+00  0.0000E+00
    -13.709  0.0000E+00  0.0000E+00  0.0000E+00  0.0000E+00  0.0000E+00  0.0000E+00  0.0000E+00  0.0000E+00  0.0000E+00
    -13.595  0.0000E+00  0.0000E+00  0.0000E+00  0.0000E+00  0.0000E+00  0.0000E+00  0.0000E+00  0.0000E+00  0.0000E+00
    -13.482  0.0000E+00  0.0000E+00  0.0000E+00  0.0000E+00  0.0000E+00  0.0000E+00  0.0000E+00  0.0000E+00  0.0000E+00
    -13.369  0.0000E+00  0.0000E+00  0.0000E+00  0.0000E+00  0.0000E+00  0.0000E+00  0.0000E+00  0.0000E+00  0.0000E+00
    -13.255  0.0000E+00  0.0000E+00  0.0000E+00  0.0000E+00  0.0000E+00  0.0000E+00  0.0000E+00  0.0000E+00  0.0000E+00
    -13.142  0.0000E+00  0.0000E+00  0.0000E+00  0.0000E+00  0.0000E+00  0.0000E+00  0.0000E+00  0.0000E+00  0.0000E+00
    -13.028  0.0000E+00  0.0000E+00  0.0000E+00  0.0000E+00  0.0000E+00  0.0000E+00  0.0000E+00  0.0000E+00  0.0000E+00
    -12.915  0.0000E+00  0.0000E+00  0.0000E+00  0.0000E+00  0.0000E+00  0.0000E+00  0.0000E+00  0.0000E+00  0.0000E+00
    -12.802  0.0000E+00  0.0000E+00  0.0000E+00  0.0000E+00  0.0000E+00  0.0000E+00  0.0000E+00  0.0000E+00  0.0000E+00
    -12.688  0.0000E+00  0.0000E+00  0.0000E+00  0.0000E+00  0.0000E+00  0.0000E+00  0.0000E+00  0.0000E+00  0.0000E+00
    -12.575  0.0000E+00  0.0000E+00  0.0000E+00  0.0000E+00  0.0000E+00  0.0000E+00  0.0000E+00  0.0000E+00  0.0000E+00
    -12.462  0.0000E+00  0.0000E+00  0.0000E+00  0.0000E+00  0.0000E+00  0.0000E+00  0.0000E+00  0.0000E+00  0.0000E+00
    -12.348  0.0000E+00  0.0000E+00  0.0000E+00  0.0000E+00  0.0000E+00  0.0000E+00  0.0000E+00  0.0000E+00  0.0000E+00
    -12.235  0.0000E+00  0.0000E+00  0.0000E+00  0.0000E+00  0.0000E+00  0.0000E+00  0.0000E+00  0.0000E+00  0.0000E+00
    -12.122  0.0000E+00  0.0000E+00  0.0000E+00  0.0000E+00  0.0000E+00  0.0000E+00  0.0000E+00  0.0000E+00  0.0000E+00
    -12.008  0.0000E+00  0.0000E+00  0.0000E+00  0.0000E+00  0.0000E+00  0.0000E+00  0.0000E+00  0.0000E+00  0.0000E+00
    -11.895  0.0000E+00  0.0000E+00  0.0000E+00  0.0000E+00  0.0000E+00  0.0000E+00  0.0000E+00  0.0000E+00  0.0000E+00
    -11.782  0.0000E+00  0.0000E+00  0.0000E+00  0.0000E+00  0.0000E+00  0.0000E+00  0.0000E+00  0.0000E+00  0.0000E+00
    -11.668  0.0000E+00  0.0000E+00  0.0000E+00  0.0000E+00  0.0000E+00  0.0000E+00  0.0000E+00  0.0000E+00  0.0000E+00
    -11.555  0.0000E+00  0.0000E+00  0.0000E+00  0.0000E+00  0.0000E+00  0.0000E+00  0.0000E+00  0.0000E+00  0.0000E+00
    -11.441  0.0000E+00  0.0000E+00  0.0000E+00  0.0000E+00  0.0000E+00  0.0000E+00  0.0000E+00  0.0000E+00  0.0000E+00
    -11.328  0.0000E+00  0.0000E+00  0.0000E+00  0.0000E+00  0.0000E+00  0.0000E+00  0.0000E+00  0.0000E+00  0.0000E+00
    -11.215  0.0000E+00  0.0000E+00  0.0000E+00  0.0000E+00  0.0000E+00  0.0000E+00  0.0000E+00  0.0000E+00  0.0000E+00
    -11.101  0.0000E+00  0.0000E+00  0.0000E+00  0.0000E+00  0.0000E+00  0.0000E+00  0.0000E+00  0.0000E+00  0.0000E+00
    -10.988  0.7253E-21  0.6267E-23  0.1851E-21  0.6267E-23  0.4869E-24  0.7194E-23  0.3847E-22  0.7194E-23  0.4869E-24
    -10.875  0.4263E-16  0.3726E-18  0.1094E-16  0.3726E-18  0.2979E-19  0.4261E-18  0.2289E-17  0.4261E-18  0.2979E-19
    -10.761  0.2052E-12  0.1812E-14  0.5295E-13  0.1812E-14  0.1490E-15  0.2063E-14  0.1116E-13  0.2063E-14  0.1490E-15
    -10.648  0.8457E-10  0.7534E-12  0.2197E-10  0.7534E-12  0.6372E-13  0.8541E-12  0.4663E-11  0.8541E-12  0.6372E-13
    -10.535  0.3270E-08  0.2933E-10  0.8548E-09  0.2933E-10  0.2547E-11  0.3310E-10  0.1826E-09  0.3310E-10  0.2547E-11
    -10.421  0.1383E-07  0.1248E-09  0.3639E-08  0.1248E-09  0.1110E-10  0.1401E-09  0.7818E-09  0.1401E-09  0.1110E-10
    -10.308  0.7248E-08  0.6566E-10  0.1920E-08  0.6566E-10  0.5985E-11  0.7336E-10  0.4147E-09  0.7336E-10  0.5985E-11
    -10.194  0.4419E-09  0.4017E-11  0.1180E-09  0.4017E-11  0.3755E-12  0.4462E-11  0.2562E-10  0.4462E-11  0.3755E-12
    -10.081  0.2663E-11  0.2426E-13  0.7175E-12  0.2426E-13  0.2330E-14  0.2676E-13  0.1566E-12  0.2676E-13  0.2330E-14
     -9.968  0.1413E-14  0.1289E-16  0.3847E-15  0.1289E-16  0.1272E-17  0.1411E-16  0.8435E-16  0.1411E-16  0.1272E-17
     -9.854  0.6237E-19  0.5685E-21  0.1716E-19  0.5685E-21  0.5764E-22  0.6169E-21  0.3778E-20  0.6169E-21  0.5764E-22
     -9.741  0.0000E+00  0.0000E+00  0.0000E+00  0.0000E+00  0.0000E+00  0.0000E+00  0.0000E+00  0.0000E+00  0.0000E+00
     -9.628  0.0000E+00  0.0000E+00  0.0000E+00  0.0000E+00  0.0000E+00  0.0000E+00  0.0000E+00  0.0000E+00  0.0000E+00
     -9.514  0.0000E+00  0.0000E+00  0.0000E+00  0.0000E+00  0.0000E+00  0.0000E+00  0.0000E+00  0.0000E+00  0.0000E+00
     -9.401  0.0000E+00  0.0000E+00  0.0000E+00  0.0000E+00  0.0000E+00  0.0000E+00  0.0000E+00  0.0000E+00  0.0000E+00
     -9.288  0.0000E+00  0.0000E+00  0.0000E+00  0.0000E+00  0.0000E+00  0.0000E+00  0.0000E+00  0.0000E+00  0.0000E+00