       N       E                     dE             d eps       ncg     rms          rms(c)
DAV:   1     0.259651559412E+04    0.25965E+04   -0.17278E+05  2032   0.126E+03
DAV:   2     0.427388948128E+02   -0.25538E+04   -0.24210E+04  2228   0.292E+02
DAV:   3    -0.106186812760E+03   -0.14893E+03   -0.14503E+03  2200   0.640E+01
DAV:   4    -0.110335627873E+03   -0.41488E+01   -0.39472E+01  2416   0.103E+01
DAV:   5    -0.110472450139E+03   -0.13682E+00   -0.13556E+00  2232   0.183E+00    0.341E+01
DAV:   6    -0.101678514164E+03    0.87939E+01   -0.33559E+01  2207   0.203E+01    0.237E+01
DAV:   7    -0.101360056899E+03    0.31846E+00   -0.52440E+00  2127   0.142E+01    0.124E+01
DAV:   8    -0.105320722443E+03   -0.39607E+01   -0.76476E+00  2283   0.307E+01    0.836E+00
DAV:   9    -0.100765697681E+03    0.45550E+01   -0.30481E+00  2333   0.208E+01    0.184E+00
DAV:  10    -0.100758474679E+03    0.72230E-02   -0.59513E-01  2151   0.381E+00    0.979E-01
DAV:  11    -0.100755527249E+03    0.29474E-02   -0.98332E-02  2183   0.111E+00    0.334E-01
DAV:  12    -0.100753764225E+03    0.17630E-02   -0.57932E-03  2272   0.503E-01    0.263E-01
DAV:  13    -0.100753095352E+03    0.66887E-03   -0.51120E-03  2087   0.528E-01    0.161E-01
DAV:  14    -0.100752693692E+03    0.40166E-03   -0.85255E-04  2128   0.255E-01    0.569E-02
DAV:  15    -0.100752743630E+03   -0.49938E-04   -0.24749E-04  2120   0.121E-01    0.392E-02
DAV:  16    -0.100752947394E+03   -0.20376E-03   -0.15127E-04  2047   0.352E-02    0.214E-02
DAV:  17    -0.100753112608E+03   -0.16521E-03   -0.28330E-05  2088   0.375E-02    0.824E-03
DAV:  18    -0.100753369161E+03   -0.25655E-03   -0.37199E-05  2023   0.994E-03    0.602E-03
DAV:  19    -0.100753455293E+03   -0.86132E-04   -0.42619E-06  1512   0.454E-03    0.336E-03
DAV:  20    -0.100753564113E+03   -0.10882E-03   -0.10019E-05  1648   0.583E-03    0.152E-03
DAV:  21    -0.100753589596E+03   -0.25483E-04   -0.15411E-06  1384   0.333E-03    0.172E-03
DAV:  22    -0.100753614283E+03   -0.24687E-04   -0.13895E-06  1352   0.279E-03    0.847E-04
DAV:  23    -0.100753626014E+03   -0.11731E-04   -0.51739E-07  1312   0.119E-03    0.545E-04
DAV:  24    -0.100753635263E+03   -0.92497E-05   -0.14425E-07  1272   0.911E-04    0.327E-04
DAV:  25    -0.100753640066E+03   -0.48028E-05   -0.75233E-08  1288   0.534E-04    0.283E-04
DAV:  26    -0.100753643710E+03   -0.36440E-05   -0.44322E-08  1232   0.594E-04    0.239E-04
DAV:  27    -0.100753644791E+03   -0.10811E-05   -0.17102E-08  1224   0.268E-04    0.129E-04
DAV:  28    -0.100753645091E+03   -0.30012E-06   -0.33226E-09  1184   0.156E-04
   1 F= -.10075365E+03 E0= -.10073468E+03  d E =-.100754E+03
       N       E                     dE             d eps       ncg     rms          rms(c)
DAV:   1    -0.998030019439E+02    0.95064E+00   -0.10656E+03  1992   0.520E+01    0.803E+00
DAV:   2    -0.100951287243E+03   -0.11483E+01   -0.17049E+01  2071   0.843E+00    0.518E+00
DAV:   3    -0.100853979566E+03    0.97308E-01   -0.57260E-01  2135   0.396E+00    0.278E+00
DAV:   4    -0.100934971591E+03   -0.80992E-01   -0.27752E-01  2238   0.462E+00    0.194E+00
DAV:   5    -0.100927242010E+03    0.77296E-02   -0.34476E-01  2534   0.645E+00    0.113E+00
DAV:   6    -0.100844673696E+03    0.82568E-01   -0.99129E-02  2534   0.308E+00    0.224E-01
DAV:   7    -0.100846312803E+03   -0.16391E-02   -0.14716E-02  2120   0.448E-01    0.200E-01
DAV:   8    -0.100846608899E+03   -0.29610E-03   -0.23568E-03  2144   0.170E-01    0.947E-02
DAV:   9    -0.100846867786E+03   -0.25889E-03   -0.37250E-04  2240   0.184E-01    0.582E-02
DAV:  10    -0.100847417309E+03   -0.54952E-03   -0.26951E-04  2072   0.464E-02    0.187E-02
DAV:  11    -0.100847683924E+03   -0.26661E-03   -0.41205E-05  2158   0.194E-02    0.133E-02
DAV:  12    -0.100847985903E+03   -0.30198E-03   -0.37253E-05  2054   0.137E-02    0.735E-03
DAV:  13    -0.100848184220E+03   -0.19832E-03   -0.23411E-05  2086   0.107E-02    0.519E-03
DAV:  14    -0.100848406783E+03   -0.22256E-03   -0.36031E-05  2045   0.810E-03    0.296E-03
DAV:  15    -0.100848483428E+03   -0.76645E-04   -0.94509E-06  1823   0.459E-03    0.210E-03
DAV:  16    -0.100848513099E+03   -0.29671E-04   -0.19348E-06  1392   0.249E-03    0.110E-03
DAV:  17    -0.100848524887E+03   -0.11788E-04   -0.28454E-07  1294   0.110E-03    0.634E-04
DAV:  18    -0.100848536419E+03   -0.11532E-04   -0.31685E-07  1221   0.125E-03    0.400E-04
DAV:  19    -0.100848539792E+03   -0.33733E-05   -0.93908E-08  1231   0.727E-04    0.306E-04
DAV:  20    -0.100848541279E+03   -0.14875E-05   -0.38704E-08  1166   0.452E-04    0.159E-04
DAV:  21    -0.100848541569E+03   -0.28993E-06   -0.84396E-09  1176   0.203E-04
   2 F= -.10084854E+03 E0= -.10083145E+03  d E =-.948965E-01
       N       E                     dE             d eps       ncg     rms          rms(c)
DAV:   1    -0.101107953403E+03   -0.25941E+00   -0.28991E+02  1992   0.302E+01    0.358E+00
DAV:   2    -0.101585582074E+03   -0.47763E+00   -0.53377E+00  2045   0.505E+00    0.300E+00
DAV:   3    -0.101567701599E+03    0.17880E-01   -0.19201E-01  2141   0.306E+00    0.160E+00
DAV:   4    -0.101661129870E+03   -0.93428E-01   -0.25669E-01  2351   0.546E+00    0.182E+00
DAV:   5    -0.101532913307E+03    0.12822E+00   -0.15147E-01  2532   0.422E+00    0.286E-01
DAV:   6    -0.101532922050E+03   -0.87427E-05   -0.23073E-02  2159   0.535E-01    0.159E-01
DAV:   7    -0.101532666318E+03    0.25573E-03   -0.28361E-03  2103   0.137E-01    0.760E-02
DAV:   8    -0.101532716689E+03   -0.50371E-04   -0.36628E-04  2192   0.731E-02    0.435E-02
DAV:   9    -0.101532890824E+03   -0.17413E-03   -0.98531E-05  2072   0.250E-02    0.203E-02
DAV:  10    -0.101533124716E+03   -0.23389E-03   -0.34577E-05  2128   0.152E-02    0.130E-02
DAV:  11    -0.101533293355E+03   -0.16864E-03   -0.16354E-05  2032   0.213E-02    0.534E-03
DAV:  12    -0.101533513166E+03   -0.21981E-03   -0.18753E-05  2071   0.669E-03    0.413E-03
DAV:  13    -0.101533652315E+03   -0.13915E-03   -0.11322E-05  1871   0.501E-03    0.293E-03
DAV:  14    -0.101533700845E+03   -0.48529E-04   -0.18246E-06  1456   0.250E-03    0.173E-03
DAV:  15    -0.101533749051E+03   -0.48206E-04   -0.13836E-06  1350   0.207E-03    0.114E-03
DAV:  16    -0.101533772087E+03   -0.23036E-04   -0.38772E-07  1320   0.121E-03    0.620E-04
DAV:  17    -0.101533789425E+03   -0.17338E-04   -0.31949E-07  1248   0.980E-04    0.386E-04
DAV:  18    -0.101533793751E+03   -0.43258E-05   -0.59939E-08  1256   0.440E-04    0.220E-04
DAV:  19    -0.101533797232E+03   -0.34809E-05   -0.32175E-08  1184   0.214E-04    0.987E-05
DAV:  20    -0.101533798553E+03   -0.13214E-05   -0.12685E-08  1208   0.198E-04    0.804E-05
DAV:  21    -0.101533799196E+03   -0.64343E-06   -0.45633E-09  1128   0.115E-04
   3 F= -.10153380E+03 E0= -.10151608E+03  d E =-.780154E+00
       N       E                     dE             d eps       ncg     rms          rms(c)
DAV:   1    -0.100843775639E+03    0.69002E+00   -0.32351E+02  1992   0.298E+01    0.536E+00
DAV:   2    -0.101215539209E+03   -0.37176E+00   -0.54517E+00  2071   0.537E+00    0.424E+00
DAV:   3    -0.101165178038E+03    0.50361E-01   -0.35642E-01  2103   0.418E+00    0.274E+00
DAV:   4    -0.101349818316E+03   -0.18464E+00   -0.59908E-01  2367   0.852E+00    0.187E+00
DAV:   5    -0.101086849385E+03    0.26297E+00   -0.30829E-01  2542   0.615E+00    0.488E-01
DAV:   6    -0.101079425789E+03    0.74236E-02   -0.35343E-02  2158   0.857E-01    0.211E-01
DAV:   7    -0.101079252570E+03    0.17322E-03   -0.62462E-03  2126   0.185E-01    0.127E-01
DAV:   8    -0.101078907033E+03    0.34554E-03   -0.48362E-04  2151   0.143E-01    0.763E-02
DAV:   9    -0.101079156682E+03   -0.24965E-03   -0.52362E-04  2046   0.129E-01    0.444E-02
DAV:  10    -0.101079436306E+03   -0.27962E-03   -0.12945E-04  2125   0.361E-02    0.407E-02
DAV:  11    -0.101079992806E+03   -0.55650E-03   -0.79222E-05  2053   0.544E-02    0.180E-02
DAV:  12    -0.101080457473E+03   -0.46467E-03   -0.68569E-05  2045   0.272E-02    0.218E-02
DAV:  13    -0.101080846382E+03   -0.38891E-03   -0.34357E-05  2080   0.223E-02    0.582E-03
DAV:  14    -0.101081108653E+03   -0.26227E-03   -0.13698E-05  1912   0.637E-03    0.463E-03
DAV:  15    -0.101081350573E+03   -0.24192E-03   -0.87671E-06  1495   0.395E-03    0.495E-03
DAV:  16    -0.101081404357E+03   -0.53784E-04   -0.13633E-06  1414   0.289E-03    0.242E-03
DAV:  17    -0.101081472012E+03   -0.67654E-04   -0.17824E-06  1334   0.232E-03    0.175E-03
DAV:  18    -0.101081486896E+03   -0.14884E-04   -0.17067E-07  1320   0.108E-03    0.103E-03
DAV:  19    -0.101081503741E+03   -0.16845E-04   -0.33117E-07  1246   0.110E-03    0.121E-03
DAV:  20    -0.101081505923E+03   -0.21823E-05   -0.24645E-08  1264   0.288E-04    0.628E-04
DAV:  21    -0.101081508933E+03   -0.30100E-05   -0.36366E-08  1175   0.661E-04    0.257E-04
DAV:  22    -0.101081509723E+03   -0.78982E-06   -0.86585E-09  1208   0.294E-04
   4 F= -.10108151E+03 E0= -.10106643E+03  d E =0.452289E+00
       N       E                     dE             d eps       ncg     rms          rms(c)
DAV:   1    -0.101820094006E+03   -0.73859E+00   -0.11207E+02  1993   0.184E+01    0.305E+00
DAV:   2    -0.101889819903E+03   -0.69726E-01   -0.16482E+00  2095   0.319E+00    0.266E+00
DAV:   3    -0.101872721407E+03    0.17098E-01   -0.70836E-02  2176   0.131E+00    0.174E+00
DAV:   4    -0.101917867244E+03   -0.45146E-01   -0.94625E-02  2342   0.309E+00    0.992E-01
DAV:   5    -0.101865902185E+03    0.51965E-01   -0.10064E-01  2565   0.377E+00    0.471E-01
DAV:   6    -0.101857241216E+03    0.86610E-02   -0.12776E-02  2207   0.109E+00    0.101E-01
DAV:   7    -0.101858458503E+03   -0.12173E-02   -0.30924E-03  2128   0.136E-01    0.631E-02
DAV:   8    -0.101859095022E+03   -0.63652E-03   -0.21289E-04  2168   0.895E-02    0.364E-02
DAV:   9    -0.101859652694E+03   -0.55767E-03   -0.11658E-04  2110   0.296E-02    0.169E-02
DAV:  10    -0.101860153201E+03   -0.50051E-03   -0.91448E-05  2102   0.213E-02    0.996E-03
DAV:  11    -0.101860402214E+03   -0.24901E-03   -0.33288E-05  2119   0.110E-02    0.665E-03
DAV:  12    -0.101860628033E+03   -0.22582E-03   -0.34267E-05  2063   0.128E-02    0.450E-03
DAV:  13    -0.101860784055E+03   -0.15602E-03   -0.25962E-05  2071   0.731E-03    0.253E-03
DAV:  14    -0.101860833451E+03   -0.49396E-04   -0.39851E-06  1440   0.393E-03    0.152E-03
DAV:  15    -0.101860867825E+03   -0.34374E-04   -0.17090E-06  1366   0.232E-03    0.915E-04
DAV:  16    -0.101860881444E+03   -0.13619E-04   -0.43345E-07  1336   0.147E-03    0.567E-04
DAV:  17    -0.101860889781E+03   -0.83371E-05   -0.20569E-07  1237   0.952E-04    0.286E-04
DAV:  18    -0.101860892810E+03   -0.30289E-05   -0.85463E-08  1240   0.622E-04    0.179E-04
DAV:  19    -0.101860894051E+03   -0.12415E-05   -0.29441E-08  1198   0.337E-04    0.108E-04
DAV:  20    -0.101860894492E+03   -0.44092E-06   -0.11299E-08  1192   0.185E-04
   5 F= -.10186089E+03 E0= -.10184457E+03  d E =-.327095E+00
       N       E                     dE             d eps       ncg     rms          rms(c)
DAV:   1    -0.101897273424E+03   -0.36379E-01   -0.16898E+01  1992   0.678E+00    0.112E+00
DAV:   2    -0.101920378452E+03   -0.23105E-01   -0.30502E-01  2071   0.101E+00    0.732E-01
DAV:   3    -0.101918378305E+03    0.20001E-02   -0.78848E-03  2118   0.382E-01    0.379E-01
DAV:   4    -0.101919502545E+03   -0.11242E-02   -0.36397E-03  2125   0.470E-01    0.212E-01
DAV:   5    -0.101919858857E+03   -0.35631E-03   -0.42238E-03  2444   0.743E-01    0.133E-01
DAV:   6    -0.101918652893E+03    0.12060E-02   -0.13701E-03  2507   0.412E-01    0.234E-02
DAV:   7    -0.101918660008E+03   -0.71150E-05   -0.12104E-04  2104   0.360E-02    0.136E-02
DAV:   8    -0.101918668132E+03   -0.81239E-05   -0.14858E-05  2126   0.980E-03    0.545E-03
DAV:   9    -0.101918675639E+03   -0.75072E-05   -0.17057E-06  1352   0.724E-03    0.248E-03
DAV:  10    -0.101918684490E+03   -0.88505E-05   -0.78900E-07  1277   0.224E-03    0.129E-03
DAV:  11    -0.101918689838E+03   -0.53481E-05   -0.21199E-07  1271   0.180E-03    0.916E-04
DAV:  12    -0.101918698434E+03   -0.85959E-05   -0.47001E-07  1272   0.870E-04    0.500E-04
DAV:  13    -0.101918702589E+03   -0.41555E-05   -0.16115E-07  1272   0.733E-04    0.517E-04
DAV:  14    -0.101918707221E+03   -0.46318E-05   -0.32896E-07  1279   0.818E-04    0.256E-04
DAV:  15    -0.101918708019E+03   -0.79814E-06   -0.41222E-08  1280   0.323E-04
   6 F= -.10191871E+03 E0= -.10190247E+03  d E =-.578135E-01
       N       E                     dE             d eps       ncg     rms          rms(c)
DAV:   1    -0.101916779692E+03    0.19275E-02   -0.10503E+01  1992   0.537E+00    0.855E-01
DAV:   2    -0.101931436341E+03   -0.14657E-01   -0.19039E-01  2072   0.786E-01    0.554E-01
DAV:   3    -0.101930162127E+03    0.12742E-02   -0.46631E-03  2135   0.290E-01    0.290E-01
DAV:   4    -0.101930894608E+03   -0.73248E-03   -0.21996E-03  2103   0.361E-01    0.163E-01
DAV:   5    -0.101931164306E+03   -0.26970E-03   -0.26096E-03  2494   0.581E-01    0.106E-01
DAV:   6    -0.101930418442E+03    0.74586E-03   -0.87371E-04  2542   0.327E-01    0.181E-02
DAV:   7    -0.101930425977E+03   -0.75351E-05   -0.75849E-05  2096   0.279E-02    0.106E-02
DAV:   8    -0.101930431764E+03   -0.57867E-05   -0.88182E-06  2055   0.763E-03    0.439E-03
DAV:   9    -0.101930437544E+03   -0.57796E-05   -0.11282E-06  1336   0.558E-03    0.201E-03
DAV:  10    -0.101930444190E+03   -0.66460E-05   -0.53708E-07  1294   0.184E-03    0.105E-03
DAV:  11    -0.101930448185E+03   -0.39955E-05   -0.14942E-07  1256   0.150E-03    0.769E-04
DAV:  12    -0.101930454945E+03   -0.67596E-05   -0.36207E-07  1277   0.747E-04    0.427E-04
DAV:  13    -0.101930457900E+03   -0.29553E-05   -0.10723E-07  1264   0.566E-04    0.438E-04
DAV:  14    -0.101930461276E+03   -0.33759E-05   -0.22252E-07  1263   0.666E-04    0.207E-04
DAV:  15    -0.101930461858E+03   -0.58196E-06   -0.32766E-08  1256   0.260E-04
   7 F= -.10193046E+03 E0= -.10191429E+03  d E =-.695674E-01
       N       E                     dE             d eps       ncg     rms          rms(c)
DAV:   1    -0.101953396101E+03   -0.22935E-01   -0.37505E+00  1992   0.336E+00    0.549E-01
DAV:   2    -0.101957571028E+03   -0.41749E-02   -0.57701E-02  2088   0.492E-01    0.429E-01
DAV:   3    -0.101957157553E+03    0.41348E-03   -0.28208E-03  2047   0.320E-01    0.277E-01
DAV:   4    -0.101959680633E+03   -0.25231E-02   -0.47487E-03  2304   0.754E-01    0.196E-01
DAV:   5    -0.101957196699E+03    0.24839E-02   -0.36629E-03  2375   0.703E-01    0.529E-02
DAV:   6    -0.101957048348E+03    0.14835E-03   -0.27992E-04  2167   0.148E-01    0.179E-02
DAV:   7    -0.101957059237E+03   -0.10889E-04   -0.56982E-05  2176   0.192E-02    0.933E-03
DAV:   8    -0.101957062559E+03   -0.33214E-05   -0.25475E-06  1472   0.110E-02    0.563E-03
DAV:   9    -0.101957072338E+03   -0.97792E-05   -0.35772E-06  1384   0.461E-03    0.214E-03
DAV:  10    -0.101957076705E+03   -0.43673E-05   -0.42703E-07  1312   0.148E-03    0.152E-03
DAV:  11    -0.101957082561E+03   -0.58558E-05   -0.37269E-07  1288   0.162E-03    0.705E-04
DAV:  12    -0.101957087790E+03   -0.52289E-05   -0.35623E-07  1319   0.972E-04    0.474E-04
DAV:  13    -0.101957090919E+03   -0.31292E-05   -0.13610E-07  1256   0.580E-04    0.292E-04
DAV:  14    -0.101957093149E+03   -0.22300E-05   -0.11881E-07  1247   0.504E-04    0.246E-04
DAV:  15    -0.101957094478E+03   -0.13293E-05   -0.53257E-08  1224   0.316E-04    0.125E-04
DAV:  16    -0.101957095143E+03   -0.66473E-06   -0.11272E-08  1208   0.172E-04
   8 F= -.10195710E+03 E0= -.10194105E+03  d E =-.266333E-01
       N       E                     dE             d eps       ncg     rms          rms(c)
DAV:   1    -0.101939353863E+03    0.17741E-01   -0.33785E+01  1992   0.100E+01    0.162E+00
DAV:   2    -0.101977018341E+03   -0.37664E-01   -0.50561E-01  2064   0.143E+00    0.122E+00
DAV:   3    -0.101973627018E+03    0.33913E-02   -0.25810E-02  2087   0.917E-01    0.777E-01
DAV:   4    -0.101993569278E+03   -0.19942E-01   -0.39696E-02  2302   0.218E+00    0.552E-01
DAV:   5    -0.101973322123E+03    0.20247E-01   -0.29411E-02  2430   0.197E+00    0.151E-01
DAV:   6    -0.101972174352E+03    0.11478E-02   -0.22919E-03  2142   0.401E-01    0.516E-02
DAV:   7    -0.101972237173E+03   -0.62821E-04   -0.48761E-04  2118   0.591E-02    0.269E-02
DAV:   8    -0.101972247642E+03   -0.10469E-04   -0.21597E-05  2152   0.314E-02    0.190E-02
DAV:   9    -0.101972312923E+03   -0.65281E-04   -0.35610E-05  2021   0.185E-02    0.997E-03
DAV:  10    -0.101972339362E+03   -0.26439E-04   -0.36540E-06  1544   0.469E-03    0.639E-03
DAV:  11    -0.101972377875E+03   -0.38513E-04   -0.28292E-06  1349   0.657E-03    0.231E-03
DAV:  12    -0.101972408146E+03   -0.30271E-04   -0.18516E-06  1367   0.233E-03    0.153E-03
DAV:  13    -0.101972437177E+03   -0.29030E-04   -0.13668E-06  1344   0.167E-03    0.893E-04
DAV:  14    -0.101972457583E+03   -0.20406E-04   -0.92558E-07  1376   0.176E-03    0.808E-04
DAV:  15    -0.101972467176E+03   -0.95934E-05   -0.39099E-07  1344   0.104E-03    0.339E-04
DAV:  16    -0.101972472266E+03   -0.50904E-05   -0.94603E-08  1264   0.496E-04    0.238E-04
DAV:  17    -0.101972476178E+03   -0.39117E-05   -0.80966E-08  1222   0.338E-04    0.259E-04
DAV:  18    -0.101972477356E+03   -0.11775E-05   -0.12395E-08  1224   0.175E-04    0.102E-04
DAV:  19    -0.101972478168E+03   -0.81275E-06   -0.64307E-09  1151   0.152E-04
   9 F= -.10197248E+03 E0= -.10195690E+03  d E =-.420163E-01
       N       E                     dE             d eps       ncg     rms          rms(c)
DAV:   1    -0.101974339571E+03   -0.18622E-02   -0.36101E+00  1992   0.328E+00    0.521E-01
DAV:   2    -0.101977851802E+03   -0.35122E-02   -0.50009E-02  2071   0.455E-01    0.397E-01
DAV:   3    -0.101977581188E+03    0.27061E-03   -0.21136E-03  2064   0.241E-01    0.241E-01
DAV:   4    -0.101979374162E+03   -0.17930E-02   -0.31152E-03  2303   0.598E-01    0.161E-01
DAV:   5    -0.101977705825E+03    0.16683E-02   -0.26991E-03  2374   0.612E-01    0.519E-02
DAV:   6    -0.101977559703E+03    0.14612E-03   -0.23759E-04  2270   0.150E-01    0.144E-02
DAV:   7    -0.101977575186E+03   -0.15482E-04   -0.44654E-05  2134   0.167E-02    0.732E-03
DAV:   8    -0.101977583370E+03   -0.81843E-05   -0.19751E-06  1432   0.879E-03    0.451E-03
DAV:   9    -0.101977599965E+03   -0.16595E-04   -0.25585E-06  1358   0.349E-03    0.142E-03
DAV:  10    -0.101977607338E+03   -0.73732E-05   -0.45894E-07  1352   0.172E-03    0.121E-03
DAV:  11    -0.101977613948E+03   -0.66096E-05   -0.25823E-07  1263   0.113E-03    0.695E-04
DAV:  12    -0.101977622121E+03   -0.81736E-05   -0.54747E-07  1336   0.121E-03    0.486E-04
DAV:  13    -0.101977626623E+03   -0.45021E-05   -0.22580E-07  1296   0.628E-04    0.258E-04
DAV:  14    -0.101977629141E+03   -0.25172E-05   -0.14049E-07  1256   0.405E-04    0.157E-04
DAV:  15    -0.101977629928E+03   -0.78767E-06   -0.30485E-08  1248   0.225E-04
  10 F= -.10197763E+03 E0= -.10196189E+03  d E =-.471681E-01
       N       E                     dE             d eps       ncg     rms          rms(c)
DAV:   1    -0.101996049266E+03   -0.18420E-01   -0.48876E+00  1992   0.372E+00    0.537E-01
DAV:   2    -0.102002209120E+03   -0.61599E-02   -0.79113E-02  2011   0.472E-01    0.328E-01
DAV:   3    -0.102001996229E+03    0.21289E-03   -0.17061E-03  2128   0.106E-01    0.182E-01
DAV:   4    -0.102002239603E+03   -0.24337E-03   -0.53242E-04  2030   0.625E-02    0.658E-02
DAV:   5    -0.102002292849E+03   -0.53246E-04   -0.15596E-04  2174   0.120E-01    0.328E-02
DAV:   6    -0.102002243820E+03    0.49029E-04   -0.94135E-05  2238   0.109E-01    0.113E-02
DAV:   7    -0.102002239178E+03    0.46421E-05   -0.10291E-05  1847   0.263E-02    0.605E-03
DAV:   8    -0.102002241083E+03   -0.19057E-05   -0.38181E-06  1470   0.553E-03    0.208E-03
DAV:   9    -0.102002241928E+03   -0.84430E-06   -0.38649E-07  1248   0.277E-03
  11 F= -.10200224E+03 E0= -.10198650E+03  d E =-.246120E-01
       N       E                     dE             d eps       ncg     rms          rms(c)
DAV:   1    -0.101986373922E+03    0.15867E-01   -0.43786E+01  1992   0.111E+01    0.161E+00
DAV:   2    -0.102044950072E+03   -0.58576E-01   -0.72743E-01  2011   0.142E+00    0.983E-01
DAV:   3    -0.102040103842E+03    0.48462E-02   -0.16100E-02  2168   0.290E-01    0.562E-01
DAV:   4    -0.102042051185E+03   -0.19473E-02   -0.53861E-03  2055   0.304E-01    0.194E-01
DAV:   5    -0.102044360769E+03   -0.23096E-02   -0.47539E-03  2320   0.750E-01    0.196E-01
DAV:   6    -0.102041975596E+03    0.23852E-02   -0.24666E-03  2470   0.567E-01    0.272E-02
DAV:   7    -0.102041987655E+03   -0.12059E-04   -0.13654E-04  2102   0.534E-02    0.211E-02
DAV:   8    -0.102042001305E+03   -0.13649E-04   -0.22948E-05  2166   0.127E-02    0.108E-02
DAV:   9    -0.102042009167E+03   -0.78618E-05   -0.55557E-06  1400   0.184E-02    0.333E-03
DAV:  10    -0.102042016631E+03   -0.74639E-05   -0.15862E-06  1358   0.316E-03    0.163E-03
DAV:  11    -0.102042023562E+03   -0.69320E-05   -0.31323E-07  1224   0.261E-03    0.924E-04
DAV:  12    -0.102042030853E+03   -0.72909E-05   -0.28173E-07  1279   0.955E-04    0.575E-04
DAV:  13    -0.102042036919E+03   -0.60656E-05   -0.23141E-07  1272   0.862E-04    0.395E-04
DAV:  14    -0.102042041971E+03   -0.50516E-05   -0.28696E-07  1271   0.587E-04    0.223E-04
DAV:  15    -0.102042043371E+03   -0.14001E-05   -0.72413E-08  1240   0.392E-04    0.168E-04
DAV:  16    -0.102042043802E+03   -0.43097E-06   -0.21067E-08  1208   0.183E-04
  12 F= -.10204204E+03 E0= -.10202632E+03  d E =-.644139E-01
       N       E                     dE             d eps       ncg     rms          rms(c)
DAV:   1    -0.102065447793E+03   -0.23404E-01   -0.56310E+00  1992   0.423E+00    0.556E-01
DAV:   2    -0.102070758539E+03   -0.53107E-02   -0.68540E-02  2072   0.526E-01    0.399E-01
DAV:   3    -0.102070278885E+03    0.47965E-03   -0.33760E-03  2063   0.325E-01    0.254E-01
DAV:   4    -0.102072244475E+03   -0.19656E-02   -0.43979E-03  2232   0.700E-01    0.179E-01
DAV:   5    -0.102070291274E+03    0.19532E-02   -0.31817E-03  2286   0.650E-01    0.598E-02
DAV:   6    -0.102070131710E+03    0.15956E-03   -0.34085E-04  2175   0.154E-01    0.161E-02
DAV:   7    -0.102070139251E+03   -0.75414E-05   -0.59981E-05  2119   0.193E-02    0.101E-02
DAV:   8    -0.102070140567E+03   -0.13156E-05   -0.40377E-06  1640   0.113E-02    0.704E-03
DAV:   9    -0.102070149061E+03   -0.84937E-05   -0.64315E-06  2006   0.645E-03    0.247E-03
DAV:  10    -0.102070153597E+03   -0.45368E-05   -0.53195E-07  1336   0.203E-03    0.184E-03
DAV:  11    -0.102070161065E+03   -0.74680E-05   -0.68322E-07  1278   0.246E-03    0.930E-04
DAV:  12    -0.102070165942E+03   -0.48763E-05   -0.27676E-07  1288   0.841E-04    0.531E-04
DAV:  13    -0.102070170449E+03   -0.45073E-05   -0.25338E-07  1278   0.624E-04    0.350E-04
DAV:  14    -0.102070173378E+03   -0.29291E-05   -0.15306E-07  1280   0.803E-04    0.209E-04
DAV:  15    -0.102070174732E+03   -0.13540E-05   -0.55269E-08  1232   0.357E-04    0.134E-04
DAV:  16    -0.102070175625E+03   -0.89256E-06   -0.15152E-08  1208   0.161E-04
  13 F= -.10207018E+03 E0= -.10205456E+03  d E =-.281318E-01
       N       E                     dE             d eps       ncg     rms          rms(c)
DAV:   1    -0.102075276600E+03   -0.51019E-02   -0.19820E+01  1992   0.791E+00    0.105E+00
DAV:   2    -0.102093996526E+03   -0.18720E-01   -0.23396E-01  2048   0.978E-01    0.738E-01
DAV:   3    -0.102092400802E+03    0.15957E-02   -0.11608E-02  2063   0.591E-01    0.462E-01
DAV:   4    -0.102098800547E+03   -0.63997E-02   -0.14704E-02  2263   0.130E+00    0.326E-01
DAV:   5    -0.102092143407E+03    0.66571E-02   -0.10517E-02  2294   0.118E+00    0.105E-01
DAV:   6    -0.102091646685E+03    0.49672E-03   -0.10929E-03  2150   0.269E-01    0.291E-02
DAV:   7    -0.102091664707E+03   -0.18022E-04   -0.20220E-04  2128   0.358E-02    0.178E-02
DAV:   8    -0.102091668295E+03   -0.35879E-05   -0.13803E-05  2112   0.217E-02    0.130E-02
DAV:   9    -0.102091693788E+03   -0.25494E-04   -0.17904E-05  2029   0.134E-02    0.467E-03
DAV:  10    -0.102091707738E+03   -0.13950E-04   -0.21622E-06  1456   0.366E-03    0.341E-03
DAV:  11    -0.102091730297E+03   -0.22559E-04   -0.18361E-06  1349   0.478E-03    0.175E-03
DAV:  12    -0.102091745059E+03   -0.14762E-04   -0.82542E-07  1352   0.150E-03    0.101E-03
DAV:  13    -0.102091760827E+03   -0.15768E-04   -0.73986E-07  1303   0.111E-03    0.622E-04
DAV:  14    -0.102091770964E+03   -0.10137E-04   -0.62289E-07  1336   0.162E-03    0.464E-04
DAV:  15    -0.102091774683E+03   -0.37195E-05   -0.10857E-07  1256   0.794E-04    0.299E-04
DAV:  16    -0.102091777222E+03   -0.25385E-05   -0.54350E-08  1192   0.325E-04    0.132E-04
DAV:  17    -0.102091778895E+03   -0.16736E-05   -0.28939E-08  1208   0.199E-04    0.103E-04
DAV:  18    -0.102091779667E+03   -0.77148E-06   -0.89996E-09  1200   0.144E-04
  14 F= -.10209178E+03 E0= -.10207637E+03  d E =-.497359E-01
       N       E                     dE             d eps       ncg     rms          rms(c)
DAV:   1    -0.102104214244E+03   -0.12435E-01   -0.63365E+00  1992   0.436E+00    0.533E-01
DAV:   2    -0.102111200334E+03   -0.69861E-02   -0.83439E-02  1996   0.530E-01    0.320E-01
DAV:   3    -0.102110877555E+03    0.32278E-03   -0.19776E-03  2095   0.882E-02    0.184E-01
DAV:   4    -0.102111026317E+03   -0.14876E-03   -0.52341E-04  2030   0.660E-02    0.575E-02
DAV:   5    -0.102111150463E+03   -0.12415E-03   -0.23312E-04  2205   0.158E-01    0.420E-02
DAV:   6    -0.102111043078E+03    0.10738E-03   -0.12435E-04  2300   0.126E-01    0.972E-03
DAV:   7    -0.102111043010E+03    0.68569E-07   -0.96907E-06  2070   0.157E-02
  15 F= -.10211104E+03 E0= -.10209559E+03  d E =-.192633E-01
       N       E                     dE             d eps       ncg     rms          rms(c)
DAV:   1    -0.102085699461E+03    0.25344E-01   -0.56924E+01  1992   0.131E+01    0.160E+00
DAV:   2    -0.102151811817E+03   -0.66112E-01   -0.76715E-01  2012   0.159E+00    0.967E-01
DAV:   3    -0.102147166095E+03    0.46457E-02   -0.18324E-02  2160   0.314E-01    0.572E-01
DAV:   4    -0.102149626241E+03   -0.24601E-02   -0.77137E-03  2255   0.658E-01    0.237E-01
DAV:   5    -0.102151406200E+03   -0.17800E-02   -0.10091E-02  2468   0.113E+00    0.230E-01
DAV:   6    -0.102148029138E+03    0.33771E-02   -0.35770E-03  2604   0.685E-01    0.303E-02
DAV:   7    -0.102148036053E+03   -0.69151E-05   -0.25429E-04  2134   0.621E-02    0.207E-02
DAV:   8    -0.102148035997E+03    0.56054E-07   -0.22791E-05  2176   0.134E-02    0.142E-02
DAV:   9    -0.102148034988E+03    0.10096E-05   -0.14367E-05  2012   0.131E-02    0.310E-03
DAV:  10    -0.102148035792E+03   -0.80414E-06   -0.14807E-06  1352   0.337E-03
  16 F= -.10214804E+03 E0= -.10213240E+03  d E =-.562561E-01
       N       E                     dE             d eps       ncg     rms          rms(c)
DAV:   1    -0.101871549705E+03    0.27649E+00   -0.22699E+02  1992   0.261E+01    0.319E+00
DAV:   2    -0.102151466194E+03   -0.27992E+00   -0.32975E+00  2012   0.323E+00    0.197E+00
DAV:   3    -0.102127262451E+03    0.24204E-01   -0.76344E-02  2176   0.759E-01    0.118E+00
DAV:   4    -0.102146701995E+03   -0.19440E-01   -0.49825E-02  2253   0.196E+00    0.626E-01
DAV:   5    -0.102141240268E+03    0.54617E-02   -0.55691E-02  2509   0.264E+00    0.434E-01
DAV:   6    -0.102130078847E+03    0.11161E-01   -0.12866E-02  2477   0.126E+00    0.721E-02
DAV:   7    -0.102130089138E+03   -0.10291E-04   -0.15182E-03  2110   0.155E-01    0.477E-02
DAV:   8    -0.102130075982E+03    0.13156E-04   -0.11150E-04  2190   0.324E-02    0.356E-02
DAV:   9    -0.102130058253E+03    0.17728E-04   -0.85128E-05  2013   0.274E-02    0.952E-03
DAV:  10    -0.102130062041E+03   -0.37875E-05   -0.76753E-06  2080   0.787E-03    0.455E-03
DAV:  11    -0.102130064232E+03   -0.21906E-05   -0.15460E-06  1275   0.465E-03    0.268E-03
DAV:  12    -0.102130065578E+03   -0.13459E-05   -0.27280E-07  1206   0.205E-03    0.105E-03
DAV:  13    -0.102130066499E+03   -0.92114E-06   -0.96750E-08  1147   0.884E-04
  17 F= -.10213007E+03 E0= -.10211365E+03  d E =-.382868E-01
       N       E                     dE             d eps       ncg     rms          rms(c)
DAV:   1    -0.102048046356E+03    0.82019E-01   -0.90905E+01  1992   0.165E+01    0.195E+00
DAV:   2    -0.102160037039E+03   -0.11199E+00   -0.12671E+00  2044   0.204E+00    0.117E+00
DAV:   3    -0.102154554203E+03    0.54828E-02   -0.26592E-02  2093   0.541E-01    0.656E-01
DAV:   4    -0.102160090487E+03   -0.55363E-02   -0.16556E-02  2141   0.117E+00    0.400E-01
DAV:   5    -0.102157819007E+03    0.22715E-02   -0.17233E-02  2708   0.148E+00    0.217E-01
DAV:   6    -0.102154692410E+03    0.31266E-02   -0.38189E-03  2450   0.662E-01    0.473E-02
DAV:   7    -0.102154695601E+03   -0.31909E-05   -0.50494E-04  2166   0.798E-02    0.262E-02
DAV:   8    -0.102154696399E+03   -0.79750E-06   -0.36077E-05  2216   0.150E-02    0.160E-02
DAV:   9    -0.102154695391E+03    0.10079E-05   -0.15760E-05  2020   0.204E-02    0.471E-03
DAV:  10    -0.102154695803E+03   -0.41252E-06   -0.30842E-06  1384   0.110E-02
  18 F= -.10215470E+03 E0= -.10213884E+03  d E =-.629161E-01
       N       E                     dE             d eps       ncg     rms          rms(c)
DAV:   1    -0.102170016441E+03   -0.15321E-01   -0.38048E+00  1992   0.345E+00    0.367E-01
DAV:   2    -0.102173335845E+03   -0.33194E-02   -0.39852E-02  2039   0.406E-01    0.245E-01
DAV:   3    -0.102173122352E+03    0.21349E-03   -0.12257E-03  2104   0.788E-02    0.142E-01
DAV:   4    -0.102173240227E+03   -0.11787E-03   -0.44957E-04  2080   0.123E-01    0.495E-02
DAV:   5    -0.102173344984E+03   -0.10476E-03   -0.46549E-04  2317   0.245E-01    0.522E-02
DAV:   6    -0.102173165207E+03    0.17978E-03   -0.19486E-04  2487   0.158E-01    0.809E-03
DAV:   7    -0.102173166430E+03   -0.12234E-05   -0.13536E-05  2088   0.134E-02    0.514E-03
DAV:   8    -0.102173167697E+03   -0.12669E-05   -0.14776E-06  1352   0.311E-03    0.279E-03
DAV:   9    -0.102173169734E+03   -0.20366E-05   -0.75034E-07  1260   0.334E-03    0.123E-03
DAV:  10    -0.102173171170E+03   -0.14359E-05   -0.17283E-07  1231   0.122E-03    0.653E-04
DAV:  11    -0.102173172723E+03   -0.15527E-05   -0.94729E-08  1182   0.139E-03    0.495E-04
DAV:  12    -0.102173175058E+03   -0.23354E-05   -0.18863E-07  1229   0.609E-04    0.346E-04
DAV:  13    -0.102173176046E+03   -0.98784E-06   -0.57526E-08  1264   0.271E-04
  19 F= -.10217318E+03 E0= -.10215719E+03  d E =-.184802E-01
       N       E                     dE             d eps       ncg     rms          rms(c)
DAV:   1    -0.102189250298E+03   -0.16075E-01   -0.34325E+01  1992   0.104E+01    0.111E+00
DAV:   2    -0.102219405618E+03   -0.30155E-01   -0.35776E-01  2039   0.122E+00    0.737E-01
DAV:   3    -0.102217087341E+03    0.23183E-02   -0.11183E-02  2071   0.250E-01    0.426E-01
DAV:   4    -0.102218943619E+03   -0.18563E-02   -0.48185E-03  2112   0.485E-01    0.170E-01
DAV:   5    -0.102219306017E+03   -0.36240E-03   -0.50201E-03  2349   0.807E-01    0.152E-01
DAV:   6    -0.102217784576E+03    0.15214E-02   -0.16633E-03  2447   0.460E-01    0.255E-02
DAV:   7    -0.102217786729E+03   -0.21530E-05   -0.14340E-04  2112   0.452E-02    0.156E-02
DAV:   8    -0.102217792588E+03   -0.58583E-05   -0.15411E-05  2166   0.992E-03    0.900E-03
DAV:   9    -0.102217804493E+03   -0.11906E-04   -0.59148E-06  1837   0.104E-02    0.373E-03
DAV:  10    -0.102217814062E+03   -0.95688E-05   -0.13713E-06  1367   0.374E-03    0.196E-03
DAV:  11    -0.102217824510E+03   -0.10448E-04   -0.59699E-07  1270   0.367E-03    0.141E-03
DAV:  12    -0.102217839011E+03   -0.14501E-04   -0.11601E-06  1333   0.156E-03    0.932E-04
DAV:  13    -0.102217846110E+03   -0.70996E-05   -0.31600E-07  1328   0.823E-04    0.775E-04
DAV:  14    -0.102217852458E+03   -0.63482E-05   -0.33221E-07  1269   0.912E-04    0.316E-04
DAV:  15    -0.102217854930E+03   -0.24713E-05   -0.73744E-08  1240   0.362E-04    0.200E-04
DAV:  16    -0.102217856289E+03   -0.13597E-05   -0.31664E-08  1192   0.187E-04    0.191E-04
DAV:  17    -0.102217856996E+03   -0.70652E-06   -0.87592E-09  1206   0.122E-04
  20 F= -.10221786E+03 E0= -.10220141E+03  d E =-.631612E-01
       N       E                     dE             d eps       ncg     rms          rms(c)
DAV:   1    -0.102134425188E+03    0.83431E-01   -0.13815E+02  1992   0.208E+01    0.223E+00
DAV:   2    -0.102262872458E+03   -0.12845E+00   -0.14520E+00  2021   0.245E+00    0.148E+00
DAV:   3    -0.102251856283E+03    0.11016E-01   -0.45433E-02  2095   0.549E-01    0.855E-01
DAV:   4    -0.102259884061E+03   -0.80278E-02   -0.25172E-02  2189   0.127E+00    0.405E-01
DAV:   5    -0.102256591013E+03    0.32930E-02   -0.23306E-02  2452   0.173E+00    0.270E-01
DAV:   6    -0.102252020585E+03    0.45704E-02   -0.54900E-03  2411   0.806E-01    0.548E-02
DAV:   7    -0.102252002139E+03    0.18446E-04   -0.65559E-04  2111   0.101E-01    0.315E-02
DAV:   8    -0.102252013060E+03   -0.10921E-04   -0.65975E-05  2176   0.220E-02    0.192E-02
DAV:   9    -0.102252047292E+03   -0.34232E-04   -0.25862E-05  2044   0.224E-02    0.769E-03
DAV:  10    -0.102252080826E+03   -0.33534E-04   -0.66905E-06  2031   0.687E-03    0.415E-03
DAV:  11    -0.102252112642E+03   -0.31816E-04   -0.19745E-06  1325   0.658E-03    0.284E-03
DAV:  12    -0.102252162421E+03   -0.49779E-04   -0.45921E-06  1420   0.298E-03    0.186E-03
DAV:  13    -0.102252187967E+03   -0.25545E-04   -0.99847E-07  1343   0.180E-03    0.156E-03
DAV:  14    -0.102252211530E+03   -0.23563E-04   -0.11930E-06  1349   0.204E-03    0.631E-04
DAV:  15    -0.102252221360E+03   -0.98299E-05   -0.32340E-07  1296   0.820E-04    0.430E-04
DAV:  16    -0.102252225839E+03   -0.44791E-05   -0.10234E-07  1222   0.407E-04    0.329E-04
DAV:  17    -0.102252228326E+03   -0.24866E-05   -0.28741E-08  1232   0.216E-04    0.144E-04
DAV:  18    -0.102252230309E+03   -0.19837E-05   -0.34281E-08  1188   0.234E-04    0.130E-04
DAV:  19    -0.102252230862E+03   -0.55291E-06   -0.62490E-09  1191   0.140E-04
  21 F= -.10225223E+03 E0= -.10223462E+03  d E =-.975351E-01
       N       E                     dE             d eps       ncg     rms          rms(c)
DAV:   1    -0.102256953300E+03   -0.47230E-02   -0.26081E-01  1992   0.886E-01    0.960E-02
DAV:   2    -0.102257201499E+03   -0.24820E-03   -0.29147E-03  2028   0.106E-01    0.564E-02
DAV:   3    -0.102257193183E+03    0.83167E-05   -0.70760E-05  2060   0.345E-02    0.327E-02
DAV:   4    -0.102257219258E+03   -0.26075E-04   -0.53181E-05  2124   0.745E-02    0.221E-02
DAV:   5    -0.102257203052E+03    0.16206E-04   -0.49468E-05  2179   0.797E-02    0.981E-03
DAV:   6    -0.102257198410E+03    0.46414E-05   -0.81938E-06  1611   0.280E-02    0.242E-03
DAV:   7    -0.102257198526E+03   -0.11595E-06   -0.15336E-06  1328   0.311E-03
  22 F= -.10225720E+03 E0= -.10223952E+03  d E =-.496766E-02
       N       E                     dE             d eps       ncg     rms          rms(c)
DAV:   1    -0.102269552546E+03   -0.12354E-01   -0.23470E+00  1992   0.266E+00    0.288E-01
DAV:   2    -0.102271786455E+03   -0.22339E-02   -0.26243E-02  1996   0.319E-01    0.170E-01
DAV:   3    -0.102271742856E+03    0.43599E-04   -0.63325E-04  2060   0.102E-01    0.983E-02
DAV:   4    -0.102271975668E+03   -0.23281E-03   -0.46042E-04  2139   0.219E-01    0.654E-02
DAV:   5    -0.102271831676E+03    0.14399E-03   -0.44428E-04  2699   0.238E-01    0.297E-02
DAV:   6    -0.102271782771E+03    0.48906E-04   -0.75587E-05  2195   0.860E-02    0.695E-03
DAV:   7    -0.102271783450E+03   -0.67957E-06   -0.12306E-05  2104   0.940E-03    0.411E-03
DAV:   8    -0.102271783208E+03    0.24220E-06   -0.44057E-07  1224   0.392E-03
  23 F= -.10227178E+03 E0= -.10225391E+03  d E =-.195523E-01
       N       E                     dE             d eps       ncg     rms          rms(c)
DAV:   1    -0.102290329263E+03   -0.18546E-01   -0.93857E+00  1992   0.531E+00    0.575E-01
DAV:   2    -0.102299474052E+03   -0.91448E-02   -0.10512E-01  2004   0.637E-01    0.340E-01
DAV:   3    -0.102299110128E+03    0.36392E-03   -0.25194E-03  2060   0.193E-01    0.197E-01
DAV:   4    -0.102299854974E+03   -0.74485E-03   -0.16910E-03  2139   0.411E-01    0.126E-01
DAV:   5    -0.102299416236E+03    0.43874E-03   -0.17359E-03  2708   0.470E-01    0.619E-02
DAV:   6    -0.102299208988E+03    0.20725E-03   -0.32493E-04  2243   0.182E-01    0.138E-02
DAV:   7    -0.102299212017E+03   -0.30289E-05   -0.49869E-05  2103   0.194E-02    0.815E-03
DAV:   8    -0.102299211184E+03    0.83254E-06   -0.19440E-06  1416   0.732E-03
  24 F= -.10229921E+03 E0= -.10228093E+03  d E =-.469803E-01
       N       E                     dE             d eps       ncg     rms          rms(c)
DAV:   1    -0.102312065203E+03   -0.12853E-01   -0.37549E+01  1992   0.106E+01    0.115E+00
DAV:   2    -0.102349200807E+03   -0.37136E-01   -0.42432E-01  2013   0.128E+00    0.684E-01
DAV:   3    -0.102347386802E+03    0.18140E-02   -0.99160E-03  2085   0.339E-01    0.397E-01
DAV:   4    -0.102349953027E+03   -0.25662E-02   -0.54384E-03  2107   0.695E-01    0.226E-01
DAV:   5    -0.102349270428E+03    0.68260E-03   -0.64140E-03  2580   0.901E-01    0.136E-01
DAV:   6    -0.102348078573E+03    0.11919E-02   -0.15361E-03  2419   0.413E-01    0.262E-02
DAV:   7    -0.102348086464E+03   -0.78907E-05   -0.18673E-04  2128   0.392E-02    0.164E-02
DAV:   8    -0.102348083733E+03    0.27303E-05   -0.94860E-06  2192   0.106E-02    0.105E-02
DAV:   9    -0.102348082823E+03    0.91054E-06   -0.14867E-05  2013   0.744E-03    0.248E-03
DAV:  10    -0.102348082959E+03   -0.13650E-06   -0.63645E-07  1256   0.273E-03
  25 F= -.10234808E+03 E0= -.10232900E+03  d E =-.958521E-01
       N       E                     dE             d eps       ncg     rms          rms(c)
DAV:   1    -0.102277774156E+03    0.70309E-01   -0.15054E+02  1992   0.213E+01    0.230E+00
DAV:   2    -0.102430952197E+03   -0.15318E+00   -0.17645E+00  2013   0.257E+00    0.138E+00
DAV:   3    -0.102420142071E+03    0.10810E-01   -0.38910E-02  2126   0.493E-01    0.806E-01
DAV:   4    -0.102423983444E+03   -0.38414E-02   -0.12888E-02  2028   0.718E-01    0.325E-01
DAV:   5    -0.102429671338E+03   -0.56879E-02   -0.17899E-02  2357   0.147E+00    0.320E-01
DAV:   6    -0.102422404176E+03    0.72672E-02   -0.79535E-03  2476   0.987E-01    0.493E-02
DAV:   7    -0.102422406915E+03   -0.27388E-05   -0.51052E-04  2168   0.766E-02    0.330E-02
DAV:   8    -0.102422397017E+03    0.98980E-05   -0.58553E-05  2053   0.196E-02    0.171E-02
DAV:   9    -0.102422394443E+03    0.25734E-05   -0.39844E-05  2054   0.217E-02    0.657E-03
DAV:  10    -0.102422394848E+03   -0.40513E-06   -0.42636E-06  1856   0.580E-03
  26 F= -.10242239E+03 E0= -.10240176E+03  d E =-.170164E+00
       N       E                     dE             d eps       ncg     rms          rms(c)
DAV:   1    -0.101830887522E+03    0.59151E+00   -0.60861E+02  1992   0.430E+01    0.464E+00
DAV:   2    -0.102543173521E+03   -0.71229E+00   -0.82281E+00  2005   0.537E+00    0.289E+00
DAV:   3    -0.102481537415E+03    0.61636E-01   -0.16753E-01  2168   0.792E-01    0.170E+00
DAV:   4    -0.102486999585E+03   -0.54622E-02   -0.63797E-02  2086   0.105E+00    0.630E-01
DAV:   5    -0.102512821956E+03   -0.25822E-01   -0.54814E-02  2268   0.262E+00    0.650E-01
DAV:   6    -0.102484612405E+03    0.28210E-01   -0.28408E-02  2459   0.195E+00    0.946E-02
DAV:   7    -0.102484483917E+03    0.12849E-03   -0.19204E-03  2111   0.233E-01    0.770E-02
DAV:   8    -0.102484477304E+03    0.66136E-05   -0.32011E-04  2143   0.472E-02    0.419E-02
DAV:   9    -0.102484435574E+03    0.41729E-04   -0.94667E-05  2117   0.719E-02    0.139E-02
DAV:  10    -0.102484442431E+03   -0.68566E-05   -0.27713E-05  2072   0.170E-02    0.572E-03
DAV:  11    -0.102484445224E+03   -0.27932E-05   -0.17389E-06  1406   0.402E-03    0.389E-03
DAV:  12    -0.102484447994E+03   -0.27693E-05   -0.49611E-07  1200   0.341E-03    0.126E-03
DAV:  13    -0.102484449635E+03   -0.16417E-05   -0.28732E-07  1246   0.112E-03    0.460E-04
DAV:  14    -0.102484450197E+03   -0.56159E-06   -0.45487E-08  1184   0.550E-04
  27 F= -.10248445E+03 E0= -.10246052E+03  d E =-.232219E+00
       N       E                     dE             d eps       ncg     rms          rms(c)
DAV:   1    -0.102471418194E+03    0.13031E-01   -0.14607E+01  1992   0.659E+00    0.700E-01
DAV:   2    -0.102485362744E+03   -0.13945E-01   -0.16673E-01  2005   0.794E-01    0.420E-01
DAV:   3    -0.102484817425E+03    0.54532E-03   -0.39655E-03  2084   0.239E-01    0.250E-01
DAV:   4    -0.102486357841E+03   -0.15404E-02   -0.26590E-03  2131   0.509E-01    0.161E-01
DAV:   5    -0.102485685226E+03    0.67262E-03   -0.28408E-03  2659   0.601E-01    0.830E-02
DAV:   6    -0.102485263500E+03    0.42173E-03   -0.58023E-04  2339   0.246E-01    0.179E-02
DAV:   7    -0.102485266822E+03   -0.33226E-05   -0.82744E-05  2128   0.258E-02    0.107E-02
DAV:   8    -0.102485265213E+03    0.16098E-05   -0.35604E-06  1648   0.866E-03    0.698E-03
DAV:   9    -0.102485264967E+03    0.24604E-06   -0.59648E-06  1990   0.464E-03
  28 F= -.10248526E+03 E0= -.10246071E+03  d E =-.233034E+00
       N       E                     dE             d eps       ncg     rms          rms(c)
DAV:   1    -0.102474056928E+03    0.11208E-01   -0.36504E+01  1992   0.106E+01    0.110E+00
DAV:   2    -0.102506153844E+03   -0.32097E-01   -0.37817E-01  2029   0.125E+00    0.719E-01
DAV:   3    -0.102503963472E+03    0.21904E-02   -0.10982E-02  2052   0.214E-01    0.416E-01
DAV:   4    -0.102505150963E+03   -0.11875E-02   -0.31255E-03  2028   0.257E-01    0.136E-01
DAV:   5    -0.102506211042E+03   -0.10601E-02   -0.26953E-03  2292   0.568E-01    0.133E-01
DAV:   6    -0.102504931883E+03    0.12792E-02   -0.13655E-03  2429   0.423E-01    0.265E-02
DAV:   7    -0.102504927010E+03    0.48734E-05   -0.89819E-05  2152   0.455E-02    0.168E-02
DAV:   8    -0.102504930444E+03   -0.34345E-05   -0.22033E-05  2044   0.114E-02    0.693E-03
DAV:   9    -0.102504935080E+03   -0.46361E-05   -0.34294E-06  1551   0.132E-02    0.345E-03
DAV:  10    -0.102504940307E+03   -0.52270E-05   -0.11659E-06  1296   0.296E-03    0.175E-03
DAV:  11    -0.102504947356E+03   -0.70492E-05   -0.51523E-07  1269   0.270E-03    0.117E-03
DAV:  12    -0.102504952740E+03   -0.53837E-05   -0.26673E-07  1262   0.897E-04    0.722E-04
DAV:  13    -0.102504959290E+03   -0.65502E-05   -0.43800E-07  1284   0.137E-03    0.474E-04
DAV:  14    -0.102504963625E+03   -0.43347E-05   -0.28625E-07  1236   0.784E-04    0.261E-04
DAV:  15    -0.102504965158E+03   -0.15333E-05   -0.56386E-08  1224   0.294E-04    0.160E-04
DAV:  16    -0.102504966062E+03   -0.90396E-06   -0.24279E-08  1205   0.229E-04
  29 F= -.10250497E+03 E0= -.10247958E+03  d E =-.197011E-01
       N       E                     dE             d eps       ncg     rms          rms(c)
DAV:   1    -0.102384474243E+03    0.12049E+00   -0.15696E+02  1992   0.219E+01    0.230E+00
DAV:   2    -0.102533658437E+03   -0.14918E+00   -0.16771E+00  2031   0.261E+00    0.150E+00
DAV:   3    -0.102520840995E+03    0.12817E-01   -0.46070E-02  2103   0.386E-01    0.870E-01
DAV:   4    -0.102521999082E+03   -0.11581E-02   -0.14112E-02  2012   0.203E-01    0.230E-01
DAV:   5    -0.102521916635E+03    0.82448E-04   -0.80237E-04  2182   0.112E-01    0.659E-02
DAV:   6    -0.102521891867E+03    0.24768E-04   -0.26359E-04  2104   0.581E-02    0.332E-02
DAV:   7    -0.102521905623E+03   -0.13756E-04   -0.10054E-04  2103   0.846E-02    0.249E-02
DAV:   8    -0.102521903060E+03    0.25630E-05   -0.60025E-05  2110   0.751E-02    0.122E-02
DAV:   9    -0.102521920276E+03   -0.17216E-04   -0.17938E-05  2095   0.198E-02    0.568E-03
DAV:  10    -0.102521947972E+03   -0.27697E-04   -0.51795E-06  1407   0.774E-03    0.305E-03
DAV:  11    -0.102521971773E+03   -0.23801E-04   -0.18396E-06  1358   0.596E-03    0.207E-03
DAV:  12    -0.102521998409E+03   -0.26636E-04   -0.16580E-06  1358   0.175E-03    0.134E-03
DAV:  13    -0.102522017036E+03   -0.18626E-04   -0.94357E-07  1334   0.330E-03    0.806E-04
DAV:  14    -0.102522032579E+03   -0.15543E-04   -0.94631E-07  1302   0.142E-03    0.384E-04
DAV:  15    -0.102522036201E+03   -0.36213E-05   -0.11983E-07  1280   0.495E-04    0.267E-04
DAV:  16    -0.102522040518E+03   -0.43177E-05   -0.10026E-07  1199   0.429E-04    0.150E-04
DAV:  17    -0.102522042215E+03   -0.16966E-05   -0.29117E-08  1247   0.249E-04    0.960E-05
DAV:  18    -0.102522043118E+03   -0.90280E-06   -0.92708E-09  1175   0.149E-04
  30 F= -.10252204E+03 E0= -.10249455E+03  d E =-.367782E-01
       N       E                     dE             d eps       ncg     rms          rms(c)
DAV:   1    -0.102518206562E+03    0.38357E-02   -0.45427E+00  1994   0.371E+00    0.394E-01
DAV:   2    -0.102522145057E+03   -0.39385E-02   -0.45551E-02  2019   0.439E-01    0.252E-01
DAV:   3    -0.102521943134E+03    0.20192E-03   -0.13549E-03  2028   0.113E-01    0.145E-01
DAV:   4    -0.102522248758E+03   -0.30562E-03   -0.63793E-04  2122   0.248E-01    0.773E-02
DAV:   5    -0.102522164882E+03    0.83876E-04   -0.75395E-04  2628   0.317E-01    0.464E-02
DAV:   6    -0.102522012224E+03    0.15266E-03   -0.17633E-04  2412   0.148E-01    0.100E-02
DAV:   7    -0.102522013045E+03   -0.82079E-06   -0.22059E-05  2135   0.162E-02    0.529E-03
DAV:   8    -0.102522013270E+03   -0.22561E-06   -0.14854E-06  1416   0.395E-03
  31 F= -.10252201E+03 E0= -.10249414E+03  d E =-.367483E-01
       N       E                     dE             d eps       ncg     rms          rms(c)
DAV:   1    -0.102500590204E+03    0.21423E-01   -0.32101E+01  1994   0.983E+00    0.105E+00
DAV:   2    -0.102531561169E+03   -0.30971E-01   -0.35353E-01  2013   0.118E+00    0.636E-01
DAV:   3    -0.102530124282E+03    0.14369E-02   -0.86947E-03  2052   0.375E-01    0.376E-01
DAV:   4    -0.102533394225E+03   -0.32699E-02   -0.60817E-03  2155   0.822E-01    0.246E-01
DAV:   5    -0.102531509274E+03    0.18850E-02   -0.61485E-03  2756   0.916E-01    0.115E-01
DAV:   6    -0.102530711584E+03    0.79769E-03   -0.11239E-03  2275   0.347E-01    0.267E-02
DAV:   7    -0.102530719165E+03   -0.75807E-05   -0.18304E-04  2128   0.386E-02    0.153E-02
DAV:   8    -0.102530715143E+03    0.40220E-05   -0.81768E-06  2126   0.151E-02    0.999E-03
DAV:   9    -0.102530714421E+03    0.72195E-06   -0.98657E-06  2039   0.649E-03
  32 F= -.10253071E+03 E0= -.10250185E+03  d E =-.870115E-02
       N       E                     dE             d eps       ncg     rms          rms(c)
DAV:   1    -0.102350330820E+03    0.18038E+00   -0.19513E+02  1992   0.243E+01    0.259E+00
DAV:   2    -0.102548755301E+03   -0.19842E+00   -0.22710E+00  2020   0.294E+00    0.159E+00
DAV:   3    -0.102533925336E+03    0.14830E-01   -0.50946E-02  2101   0.664E-01    0.938E-01
DAV:   4    -0.102542680141E+03   -0.87548E-02   -0.21995E-02  2107   0.128E+00    0.457E-01
DAV:   5    -0.102545309663E+03   -0.26295E-02   -0.29228E-02  2516   0.199E+00    0.355E-01
DAV:   6    -0.102536223534E+03    0.90861E-02   -0.92613E-03  2476   0.112E+00    0.633E-02
DAV:   7    -0.102536238491E+03   -0.14957E-04   -0.98828E-04  2136   0.982E-02    0.376E-02
DAV:   8    -0.102536218606E+03    0.19885E-04   -0.77223E-05  2134   0.263E-02    0.229E-02
DAV:   9    -0.102536209659E+03    0.89466E-05   -0.85478E-05  2063   0.185E-02    0.656E-03
DAV:  10    -0.102536211129E+03   -0.14702E-05   -0.49654E-06  1936   0.476E-03    0.333E-03
DAV:  11    -0.102536213389E+03   -0.22597E-05   -0.60682E-07  1254   0.278E-03    0.133E-03
DAV:  12    -0.102536215509E+03   -0.21204E-05   -0.25484E-07  1223   0.134E-03    0.765E-04
DAV:  13    -0.102536217056E+03   -0.15470E-05   -0.10605E-07  1183   0.466E-04    0.471E-04
DAV:  14    -0.102536218456E+03   -0.13996E-05   -0.97799E-08  1207   0.835E-04    0.327E-04
DAV:  15    -0.102536219510E+03   -0.10544E-05   -0.70065E-08  1207   0.440E-04    0.149E-04
DAV:  16    -0.102536219943E+03   -0.43266E-06   -0.23997E-08  1208   0.175E-04
  33 F= -.10253622E+03 E0= -.10250517E+03  d E =-.142067E-01
       N       E                     dE             d eps       ncg     rms          rms(c)
DAV:   1    -0.102529835888E+03    0.63836E-02   -0.75853E+00  1992   0.477E+00    0.506E-01
DAV:   2    -0.102537141353E+03   -0.73055E-02   -0.83719E-02  2019   0.576E-01    0.303E-01
DAV:   3    -0.102537024796E+03    0.11656E-03   -0.22060E-03  2034   0.246E-01    0.183E-01
DAV:   4    -0.102538011778E+03   -0.98698E-03   -0.21127E-03  2186   0.521E-01    0.144E-01
DAV:   5    -0.102537054348E+03    0.95743E-03   -0.16429E-03  2466   0.478E-01    0.478E-02
DAV:   6    -0.102536952567E+03    0.10178E-03   -0.23028E-04  2097   0.129E-01    0.140E-02
DAV:   7    -0.102536955025E+03   -0.24574E-05   -0.43299E-05  2184   0.162E-02    0.836E-03
DAV:   8    -0.102536953323E+03    0.17018E-05   -0.20933E-06  1400   0.124E-02    0.549E-03
DAV:   9    -0.102536953289E+03    0.33702E-07   -0.44240E-06  1974   0.466E-03
  34 F= -.10253695E+03 E0= -.10250630E+03  d E =-.149400E-01
       N       E                     dE             d eps       ncg     rms          rms(c)
DAV:   1    -0.102538572217E+03   -0.16189E-02   -0.37769E+00  1992   0.347E+00    0.364E-01
DAV:   2    -0.102541651386E+03   -0.30792E-02   -0.37067E-02  2035   0.408E-01    0.239E-01
DAV:   3    -0.102541503724E+03    0.14766E-03   -0.11819E-03  2063   0.106E-01    0.137E-01
DAV:   4    -0.102541778894E+03   -0.27517E-03   -0.54320E-04  2139   0.233E-01    0.710E-02
DAV:   5    -0.102541677913E+03    0.10098E-03   -0.63441E-04  2574   0.296E-01    0.429E-02
DAV:   6    -0.102541543268E+03    0.13465E-03   -0.14449E-04  2406   0.136E-01    0.948E-03
DAV:   7    -0.102541544043E+03   -0.77550E-06   -0.19819E-05  2160   0.149E-02    0.505E-03
DAV:   8    -0.102541544483E+03   -0.43929E-06   -0.13762E-06  1384   0.404E-03
  35 F= -.10254154E+03 E0= -.10251079E+03  d E =-.459119E-02
       N       E                     dE             d eps       ncg     rms          rms(c)
DAV:   1    -0.102536859632E+03    0.46844E-02   -0.95013E+00  1992   0.550E+00    0.578E-01
DAV:   2    -0.102544728317E+03   -0.78687E-02   -0.92923E-02  2042   0.647E-01    0.380E-01
DAV:   3    -0.102544294118E+03    0.43420E-03   -0.29757E-03  2085   0.166E-01    0.217E-01
DAV:   4    -0.102544898986E+03   -0.60487E-03   -0.13393E-03  2140   0.365E-01    0.111E-01
DAV:   5    -0.102544663340E+03    0.23565E-03   -0.15540E-03  2574   0.465E-01    0.675E-02
DAV:   6    -0.102544331683E+03    0.33166E-03   -0.35451E-04  2422   0.215E-01    0.149E-02
DAV:   7    -0.102544336274E+03   -0.45905E-05   -0.47249E-05  2128   0.234E-02    0.789E-03
DAV:   8    -0.102544339345E+03   -0.30713E-05   -0.39243E-06  1654   0.656E-03    0.486E-03
DAV:   9    -0.102544345522E+03   -0.61766E-05   -0.29496E-06  1507   0.668E-03    0.177E-03
DAV:  10    -0.102544348544E+03   -0.30228E-05   -0.48830E-07  1287   0.203E-03    0.120E-03
DAV:  11    -0.102544352952E+03   -0.44080E-05   -0.23316E-07  1187   0.168E-03    0.854E-04
DAV:  12    -0.102544359817E+03   -0.68643E-05   -0.59426E-07  1302   0.144E-03    0.439E-04
DAV:  13    -0.102544362269E+03   -0.24523E-05   -0.99729E-08  1295   0.502E-04    0.280E-04
DAV:  14    -0.102544364983E+03   -0.27143E-05   -0.15605E-07  1213   0.405E-04    0.136E-04
DAV:  15    -0.102544365736E+03   -0.75303E-06   -0.29889E-08  1272   0.254E-04
  36 F= -.10254437E+03 E0= -.10251348E+03  d E =-.741245E-02
       N       E                     dE             d eps       ncg     rms          rms(c)
DAV:   1    -0.102546165863E+03   -0.18009E-02   -0.14409E+00  1992   0.213E+00    0.221E-01
DAV:   2    -0.102547531469E+03   -0.13656E-02   -0.15450E-02  2027   0.254E-01    0.132E-01
DAV:   3    -0.102547466191E+03    0.65278E-04   -0.38952E-04  2042   0.972E-02    0.794E-02
DAV:   4    -0.102547634536E+03   -0.16834E-03   -0.34245E-04  2163   0.210E-01    0.584E-02
DAV:   5    -0.102547484272E+03    0.15026E-03   -0.29391E-04  2634   0.205E-01    0.220E-02
DAV:   6    -0.102547461486E+03    0.22786E-04   -0.43548E-05  2125   0.606E-02    0.578E-03
DAV:   7    -0.102547461965E+03   -0.47917E-06   -0.79905E-06  2095   0.703E-03
  37 F= -.10254746E+03 E0= -.10251654E+03  d E =-.309623E-02
       N       E                     dE             d eps       ncg     rms          rms(c)
DAV:   1    -0.102542110693E+03    0.53508E-02   -0.12962E+01  1992   0.638E+00    0.665E-01
DAV:   2    -0.102554110349E+03   -0.12000E-01   -0.13951E-01  2027   0.763E-01    0.399E-01
DAV:   3    -0.102553710442E+03    0.39991E-03   -0.34582E-03  2050   0.278E-01    0.239E-01
DAV:   4    -0.102555205155E+03   -0.14947E-02   -0.28567E-03  2163   0.605E-01    0.171E-01
DAV:   5    -0.102553996389E+03    0.12088E-02   -0.25690E-03  2643   0.608E-01    0.684E-02
DAV:   6    -0.102553754704E+03    0.24168E-03   -0.40022E-04  2153   0.192E-01    0.172E-02
DAV:   7    -0.102553758555E+03   -0.38501E-05   -0.73888E-05  2136   0.218E-02    0.103E-02
DAV:   8    -0.102553755852E+03    0.27030E-05   -0.35743E-06  1550   0.138E-02    0.672E-03
DAV:   9    -0.102553755631E+03    0.22090E-06   -0.54354E-06  2055   0.499E-03
  38 F= -.10255376E+03 E0= -.10252272E+03  d E =-.938989E-02
       N       E                     dE             d eps       ncg     rms          rms(c)
DAV:   1    -0.102507961555E+03    0.45794E-01   -0.51827E+01  1992   0.128E+01    0.133E+00
DAV:   2    -0.102557314841E+03   -0.49353E-01   -0.56423E-01  2035   0.153E+00    0.801E-01
DAV:   3    -0.102554570390E+03    0.27445E-02   -0.13469E-02  2075   0.474E-01    0.477E-01
DAV:   4    -0.102559328328E+03   -0.47579E-02   -0.90509E-03  2157   0.104E+00    0.308E-01
DAV:   5    -0.102556138818E+03    0.31895E-02   -0.94255E-03  2707   0.117E+00    0.150E-01
DAV:   6    -0.102554850660E+03    0.12882E-02   -0.17467E-03  2258   0.445E-01    0.339E-02
DAV:   7    -0.102554866411E+03   -0.15751E-04   -0.30109E-04  2128   0.478E-02    0.193E-02
DAV:   8    -0.102554859382E+03    0.70286E-05   -0.14822E-05  2214   0.220E-02    0.124E-02
DAV:   9    -0.102554858618E+03    0.76398E-06   -0.14640E-05  2079   0.843E-03    0.333E-03
DAV:  10    -0.102554859208E+03   -0.58970E-06   -0.12656E-06  1343   0.718E-03
  39 F= -.10255486E+03 E0= -.10252373E+03  d E =-.104935E-01
       N       E                     dE             d eps       ncg     rms          rms(c)
DAV:   1    -0.102546533134E+03    0.83255E-02   -0.99524E+00  1992   0.560E+00    0.577E-01
DAV:   2    -0.102555904068E+03   -0.93709E-02   -0.10829E-01  2043   0.673E-01    0.345E-01
DAV:   3    -0.102555749260E+03    0.15481E-03   -0.28041E-03  2066   0.289E-01    0.209E-01
DAV:   4    -0.102557160240E+03   -0.14110E-02   -0.27413E-03  2203   0.609E-01    0.165E-01
DAV:   5    -0.102555954050E+03    0.12062E-02   -0.20901E-03  2483   0.550E-01    0.544E-02
DAV:   6    -0.102555850260E+03    0.10379E-03   -0.30022E-04  2051   0.142E-01    0.159E-02
DAV:   7    -0.102555853526E+03   -0.32663E-05   -0.58006E-05  2168   0.185E-02    0.989E-03
DAV:   8    -0.102555850624E+03    0.29025E-05   -0.32633E-06  1472   0.155E-02    0.658E-03
DAV:   9    -0.102555850287E+03    0.33696E-06   -0.65755E-06  2056   0.587E-03
  40 F= -.10255585E+03 E0= -.10252475E+03  d E =-.114846E-01
       N       E                     dE             d eps       ncg     rms          rms(c)
DAV:   1    -0.102556983522E+03   -0.11329E-02   -0.10855E-01  1994   0.609E-01    0.544E-02
DAV:   2    -0.102557059124E+03   -0.75601E-04   -0.92854E-04  2053   0.729E-02    0.380E-02
DAV:   3    -0.102557055318E+03    0.38061E-05   -0.27353E-05  2104   0.142E-02    0.211E-02
DAV:   4    -0.102557058694E+03   -0.33765E-05   -0.82418E-06  1476   0.235E-02    0.801E-03
DAV:   5    -0.102557060281E+03   -0.15871E-05   -0.10309E-05  1551   0.382E-02    0.721E-03
DAV:   6    -0.102557056497E+03    0.37838E-05   -0.34801E-06  1230   0.229E-02    0.135E-03
DAV:   7    -0.102557056446E+03    0.51514E-07   -0.57316E-07  1224   0.275E-03
  41 F= -.10255706E+03 E0= -.10252601E+03  d E =-.120616E-02
       N       E                     dE             d eps       ncg     rms          rms(c)
DAV:   1    -0.102559244377E+03   -0.21879E-02   -0.97731E-01  1992   0.183E+00    0.163E-01
DAV:   2    -0.102559903728E+03   -0.65935E-03   -0.83414E-03  2045   0.219E-01    0.114E-01
DAV:   3    -0.102559871464E+03    0.32264E-04   -0.25768E-04  2096   0.425E-02    0.633E-02
DAV:   4    -0.102559914923E+03   -0.43459E-04   -0.79199E-05  2173   0.696E-02    0.234E-02
DAV:   5    -0.102559929742E+03   -0.14819E-04   -0.94600E-05  2390   0.114E-01    0.214E-02
DAV:   6    -0.102559895283E+03    0.34458E-04   -0.31516E-05  2295   0.683E-02    0.409E-03
DAV:   7    -0.102559895667E+03   -0.38330E-06   -0.33997E-06  1558   0.762E-03
  42 F= -.10255990E+03 E0= -.10252901E+03  d E =-.404538E-02
       N       E                     dE             d eps       ncg     rms          rms(c)
DAV:   1    -0.102559473742E+03    0.42154E-03   -0.39111E+00  1992   0.365E+00    0.328E-01
DAV:   2    -0.102562203580E+03   -0.27298E-02   -0.33120E-02  2045   0.437E-01    0.228E-01
DAV:   3    -0.102562026791E+03    0.17679E-03   -0.10320E-03  2080   0.889E-02    0.126E-01
DAV:   4    -0.102562178020E+03   -0.15123E-03   -0.34249E-04  2172   0.161E-01    0.509E-02
DAV:   5    -0.102562205967E+03   -0.27946E-04   -0.41235E-04  2414   0.240E-01    0.415E-02
DAV:   6    -0.102562080073E+03    0.12589E-03   -0.12037E-04  2495   0.132E-01    0.825E-03
DAV:   7    -0.102562083094E+03   -0.30207E-05   -0.14569E-05  2086   0.147E-02    0.488E-03
DAV:   8    -0.102562085835E+03   -0.27417E-05   -0.18245E-06  1453   0.348E-03    0.278E-03
DAV:   9    -0.102562089702E+03   -0.38663E-05   -0.86745E-07  1243   0.532E-03    0.126E-03
DAV:  10    -0.102562092279E+03   -0.25770E-05   -0.31559E-07  1246   0.146E-03    0.752E-04
DAV:  11    -0.102562094712E+03   -0.24337E-05   -0.10428E-07  1189   0.987E-04    0.631E-04
DAV:  12    -0.102562099423E+03   -0.47108E-05   -0.47969E-07  1286   0.124E-03    0.391E-04
DAV:  13    -0.102562100380E+03   -0.95682E-06   -0.45928E-08  1280   0.350E-04
  43 F= -.10256210E+03 E0= -.10253154E+03  d E =-.625009E-02
       N       E                     dE             d eps       ncg     rms          rms(c)
DAV:   1    -0.102562554542E+03   -0.45512E-03   -0.20707E-02  1996   0.264E-01    0.227E-02
DAV:   2    -0.102562569856E+03   -0.15314E-04   -0.19350E-04  2104   0.319E-02    0.138E-02
DAV:   3    -0.102562570459E+03   -0.60309E-06   -0.41460E-06  1440   0.955E-03
  44 F= -.10256257E+03 E0= -.10253202E+03  d E =-.470079E-03
       N       E                     dE             d eps       ncg     rms          rms(c)
DAV:   1    -0.102563760106E+03   -0.11902E-02   -0.18651E-01  1992   0.793E-01    0.706E-02
DAV:   2    -0.102563901726E+03   -0.14162E-03   -0.17415E-03  2038   0.107E-01    0.460E-02
DAV:   3    -0.102563920465E+03   -0.18739E-04   -0.96093E-05  2110   0.952E-02    0.329E-02
DAV:   4    -0.102563919175E+03    0.12899E-05   -0.73466E-05  2260   0.105E-01    0.225E-02
DAV:   5    -0.102563909038E+03    0.10136E-04   -0.25362E-05  2091   0.588E-02    0.630E-03
DAV:   6    -0.102563909371E+03   -0.33271E-06   -0.63294E-06  2016   0.115E-02
  45 F= -.10256391E+03 E0= -.10253343E+03  d E =-.180899E-02
       N       E                     dE             d eps       ncg     rms          rms(c)
DAV:   1    -0.102565612462E+03   -0.17034E-02   -0.74531E-01  1992   0.158E+00    0.136E-01
DAV:   2    -0.102566185886E+03   -0.57342E-03   -0.69763E-03  2034   0.191E-01    0.828E-02
DAV:   3    -0.102566188468E+03   -0.25826E-05   -0.15166E-04  2090   0.568E-02    0.494E-02
DAV:   4    -0.102566274262E+03   -0.85794E-04   -0.11748E-04  2130   0.123E-01    0.345E-02
DAV:   5    -0.102566230618E+03    0.43645E-04   -0.10815E-04  2722   0.126E-01    0.143E-02
DAV:   6    -0.102566221500E+03    0.91172E-05   -0.16927E-05  2050   0.414E-02    0.379E-03
DAV:   7    -0.102566221625E+03   -0.12439E-06   -0.32066E-06  1535   0.495E-03
  46 F= -.10256622E+03 E0= -.10253585E+03  d E =-.412124E-02
       N       E                     dE             d eps       ncg     rms          rms(c)
DAV:   1    -0.102567010975E+03   -0.78947E-03   -0.29805E+00  1992   0.317E+00    0.272E-01
DAV:   2    -0.102569408843E+03   -0.23979E-02   -0.27867E-02  2028   0.382E-01    0.166E-01
DAV:   3    -0.102569352005E+03    0.56838E-04   -0.60611E-04  2066   0.110E-01    0.987E-02
DAV:   4    -0.102569632274E+03   -0.28027E-03   -0.44676E-04  2130   0.238E-01    0.673E-02
DAV:   5    -0.102569460054E+03    0.17222E-03   -0.42321E-04  2858   0.251E-01    0.293E-02
DAV:   6    -0.102569421315E+03    0.38740E-04   -0.68692E-05  2170   0.853E-02    0.747E-03
DAV:   7    -0.102569421683E+03   -0.36805E-06   -0.13010E-05  2104   0.102E-02    0.369E-03
DAV:   8    -0.102569421423E+03    0.26001E-06   -0.57027E-07  1247   0.560E-03
  47 F= -.10256942E+03 E0= -.10253927E+03  d E =-.732104E-02
       N       E                     dE             d eps       ncg     rms          rms(c)
DAV:   1    -0.102560535905E+03    0.88858E-02   -0.11921E+01  1992   0.634E+00    0.542E-01
DAV:   2    -0.102570260677E+03   -0.97248E-02   -0.11182E-01  2036   0.765E-01    0.331E-01
DAV:   3    -0.102569935445E+03    0.32523E-03   -0.24162E-03  2083   0.205E-01    0.197E-01
DAV:   4    -0.102570941863E+03   -0.10064E-02   -0.16015E-03  2123   0.447E-01    0.129E-01
DAV:   5    -0.102570371288E+03    0.57058E-03   -0.16113E-03  2842   0.493E-01    0.612E-02
DAV:   6    -0.102570165832E+03    0.20546E-03   -0.28484E-04  2219   0.181E-01    0.147E-02
DAV:   7    -0.102570166418E+03   -0.58644E-06   -0.52521E-05  2104   0.216E-02    0.732E-03
DAV:   8    -0.102570165610E+03    0.80862E-06   -0.24822E-06  1503   0.101E-02
  48 F= -.10257017E+03 E0= -.10254047E+03  d E =-.806523E-02
       N       E                     dE             d eps       ncg     rms          rms(c)
DAV:   1    -0.102569460731E+03    0.70569E-03   -0.16990E+00  1992   0.239E+00    0.203E-01
DAV:   2    -0.102570818831E+03   -0.13581E-02   -0.16056E-02  2027   0.288E-01    0.125E-01
DAV:   3    -0.102570798049E+03    0.20783E-04   -0.33056E-04  2106   0.695E-02    0.731E-02
DAV:   4    -0.102570929319E+03   -0.13127E-03   -0.19640E-04  2164   0.151E-01    0.443E-02
DAV:   5    -0.102570873491E+03    0.55828E-04   -0.21171E-04  2891   0.178E-01    0.241E-02
DAV:   6    -0.102570839453E+03    0.34039E-04   -0.41140E-05  2251   0.711E-02    0.538E-03
DAV:   7    -0.102570839344E+03    0.10873E-06   -0.69616E-06  2000   0.791E-03
  49 F= -.10257084E+03 E0= -.10254097E+03  d E =-.873896E-02
       N       E                     dE             d eps       ncg     rms          rms(c)
DAV:   1    -0.102571241134E+03   -0.40168E-03   -0.26307E-02  1992   0.301E-01    0.261E-02
DAV:   2    -0.102571258698E+03   -0.17564E-04   -0.22382E-04  2028   0.365E-02    0.178E-02
DAV:   3    -0.102571258454E+03    0.24401E-06   -0.83731E-06  1543   0.166E-02
  50 F= -.10257126E+03 E0= -.10254137E+03  d E =-.419110E-03
       N       E                     dE             d eps       ncg     rms          rms(c)
DAV:   1    -0.102572020832E+03   -0.76213E-03   -0.23693E-01  1992   0.906E-01    0.802E-02
DAV:   2    -0.102572187860E+03   -0.16703E-03   -0.19931E-03  2062   0.139E-01    0.625E-02
DAV:   3    -0.102572195464E+03   -0.76042E-05   -0.19613E-04  2077   0.138E-01    0.442E-02
DAV:   4    -0.102572182196E+03    0.13268E-04   -0.10937E-04  2214   0.121E-01    0.261E-02
DAV:   5    -0.102572163355E+03    0.18841E-04   -0.32873E-05  2125   0.665E-02    0.811E-03
DAV:   6    -0.102572163042E+03    0.31374E-06   -0.99293E-06  2104   0.145E-02
  51 F= -.10257216E+03 E0= -.10254220E+03  d E =-.132370E-02
       N       E                     dE             d eps       ncg     rms          rms(c)
DAV:   1    -0.102571840973E+03    0.32238E-03   -0.94691E-01  1992   0.181E+00    0.154E-01
DAV:   2    -0.102572462735E+03   -0.62176E-03   -0.79872E-03  2029   0.215E-01    0.106E-01
DAV:   3    -0.102572427606E+03    0.35129E-04   -0.26278E-04  2136   0.432E-02    0.597E-02
DAV:   4    -0.102572470766E+03   -0.43160E-04   -0.98301E-05  2150   0.935E-02    0.278E-02
DAV:   5    -0.102572464124E+03    0.66417E-05   -0.10930E-04  2415   0.125E-01    0.195E-02
DAV:   6    -0.102572438028E+03    0.26096E-04   -0.26801E-05  2215   0.616E-02    0.440E-03
DAV:   7    -0.102572441692E+03   -0.36642E-05   -0.45175E-06  1694   0.734E-03    0.241E-03
DAV:   8    -0.102572443711E+03   -0.20185E-05   -0.43170E-07  1301   0.203E-03    0.160E-03
DAV:   9    -0.102572447319E+03   -0.36085E-05   -0.38914E-07  1219   0.265E-03    0.625E-04
DAV:  10    -0.102572449029E+03   -0.17093E-05   -0.11713E-07  1230   0.718E-04    0.420E-04
DAV:  11    -0.102572450436E+03   -0.14076E-05   -0.41636E-08  1174   0.612E-04    0.334E-04
DAV:  12    -0.102572453327E+03   -0.28905E-05   -0.18951E-07  1220   0.561E-04    0.171E-04
DAV:  13    -0.102572453937E+03   -0.61042E-06   -0.23529E-08  1232   0.204E-04
  52 F= -.10257245E+03 E0= -.10254236E+03  d E =-.161459E-02
       N       E                     dE             d eps       ncg     rms          rms(c)
DAV:   1    -0.102572483934E+03   -0.30607E-04   -0.14978E-01  1993   0.719E-01    0.616E-02
DAV:   2    -0.102572577382E+03   -0.93448E-04   -0.12465E-03  2056   0.850E-02    0.417E-02
DAV:   3    -0.102572573938E+03    0.34448E-05   -0.40986E-05  2128   0.153E-02    0.233E-02
DAV:   4    -0.102572582422E+03   -0.84842E-05   -0.11820E-05  1645   0.279E-02    0.911E-03
DAV:   5    -0.102572584574E+03   -0.21519E-05   -0.13744E-05  1752   0.445E-02    0.840E-03
DAV:   6    -0.102572579526E+03    0.50476E-05   -0.44747E-06  1287   0.263E-02    0.163E-03
DAV:   7    -0.102572579520E+03    0.65193E-08   -0.77892E-07  1264   0.309E-03
  53 F= -.10257258E+03 E0= -.10254254E+03  d E =-.174018E-02
       N       E                     dE             d eps       ncg     rms          rms(c)
DAV:   1    -0.102572993608E+03   -0.41408E-03   -0.32154E-02  1992   0.333E-01    0.247E-02
DAV:   2    -0.102573016307E+03   -0.22699E-04   -0.27394E-04  2063   0.393E-02    0.148E-02
DAV:   3    -0.102573016175E+03    0.13155E-06   -0.53437E-06  1528   0.569E-03
  54 F= -.10257302E+03 E0= -.10254297E+03  d E =-.436656E-03
       N       E                     dE             d eps       ncg     rms          rms(c)
DAV:   1    -0.102574003105E+03   -0.98680E-03   -0.28963E-01  1992   0.100E+00    0.766E-02
DAV:   2    -0.102574215505E+03   -0.21240E-03   -0.24783E-03  2022   0.119E-01    0.462E-02
DAV:   3    -0.102574216618E+03   -0.11126E-05   -0.51290E-05  2101   0.313E-02    0.274E-02
DAV:   4    -0.102574237554E+03   -0.20936E-04   -0.41231E-05  2222   0.657E-02    0.199E-02
DAV:   5    -0.102574225775E+03    0.11779E-04   -0.31815E-05  2099   0.697E-02    0.765E-03
DAV:   6    -0.102574222536E+03    0.32391E-05   -0.52761E-06  1334   0.248E-02    0.239E-03
DAV:   7    -0.102574222577E+03   -0.40571E-07   -0.11740E-06  1278   0.316E-03
  55 F= -.10257422E+03 E0= -.10254414E+03  d E =-.164306E-02
       N       E                     dE             d eps       ncg     rms          rms(c)
DAV:   1    -0.102575194959E+03   -0.97242E-03   -0.11577E+00  1992   0.200E+00    0.149E-01
DAV:   2    -0.102576048727E+03   -0.85377E-03   -0.99188E-03  2026   0.238E-01    0.891E-02
DAV:   3    -0.102576040704E+03    0.80229E-05   -0.21704E-04  2066   0.737E-02    0.561E-02
DAV:   4    -0.102576160103E+03   -0.11940E-03   -0.18372E-04  2130   0.156E-01    0.422E-02
DAV:   5    -0.102576086934E+03    0.73169E-04   -0.14936E-04  2746   0.146E-01    0.152E-02
DAV:   6    -0.102576078556E+03    0.83775E-05   -0.24420E-05  2058   0.424E-02    0.491E-03
DAV:   7    -0.102576078634E+03   -0.77707E-07   -0.43959E-06  1880   0.559E-03
  56 F= -.10257608E+03 E0= -.10254593E+03  d E =-.349911E-02
       N       E                     dE             d eps       ncg     rms          rms(c)
DAV:   1    -0.102573750220E+03    0.23283E-02   -0.46316E+00  1992   0.400E+00    0.299E-01
DAV:   2    -0.102577295388E+03   -0.35452E-02   -0.39735E-02  2027   0.476E-01    0.178E-01
DAV:   3    -0.102577239303E+03    0.56085E-04   -0.89483E-04  2066   0.164E-01    0.114E-01
DAV:   4    -0.102577621103E+03   -0.38180E-03   -0.81596E-04  2131   0.332E-01    0.875E-02
DAV:   5    -0.102577284367E+03    0.33674E-03   -0.61201E-04  2604   0.294E-01    0.293E-02
DAV:   6    -0.102577262132E+03    0.22235E-04   -0.10336E-04  2060   0.788E-02    0.991E-03
DAV:   7    -0.102577262597E+03   -0.46531E-06   -0.17809E-05  2128   0.106E-02    0.602E-03
DAV:   8    -0.102577261644E+03    0.95379E-06   -0.13069E-06  1296   0.101E-02
  57 F= -.10257726E+03 E0= -.10254698E+03  d E =-.468212E-02
       N       E                     dE             d eps       ncg     rms          rms(c)
DAV:   1    -0.102577862777E+03   -0.60018E-03   -0.28325E-01  1992   0.986E-01    0.729E-02
DAV:   2    -0.102578045305E+03   -0.18253E-03   -0.22314E-03  2030   0.117E-01    0.486E-02
DAV:   3    -0.102578045334E+03   -0.28696E-07   -0.67424E-05  2080   0.317E-02    0.288E-02
DAV:   4    -0.102578072505E+03   -0.27171E-04   -0.44686E-05  2158   0.747E-02    0.205E-02
DAV:   5    -0.102578053630E+03    0.18875E-04   -0.37790E-05  2222   0.734E-02    0.731E-03
DAV:   6    -0.102578051076E+03    0.25537E-05   -0.62064E-06  1807   0.228E-02    0.273E-03
DAV:   7    -0.102578051452E+03   -0.37596E-06   -0.12534E-06  1312   0.314E-03
  58 F= -.10257805E+03 E0= -.10254777E+03  d E =-.789809E-03
       N       E                     dE             d eps       ncg     rms          rms(c)
DAV:   1    -0.102578004924E+03    0.46152E-04   -0.95171E-01  1992   0.181E+00    0.133E-01
DAV:   2    -0.102578637084E+03   -0.63216E-03   -0.75526E-03  2038   0.214E-01    0.893E-02
DAV:   3    -0.102578621797E+03    0.15287E-04   -0.22319E-04  2072   0.575E-02    0.530E-02
DAV:   4    -0.102578711731E+03   -0.89934E-04   -0.15243E-04  2157   0.137E-01    0.378E-02
DAV:   5    -0.102578645194E+03    0.66537E-04   -0.12809E-04  2478   0.135E-01    0.132E-02
DAV:   6    -0.102578636181E+03    0.90133E-05   -0.20230E-05  2087   0.413E-02    0.499E-03
DAV:   7    -0.102578637669E+03   -0.14885E-05   -0.39334E-06  1632   0.584E-03    0.226E-03
DAV:   8    -0.102578638509E+03   -0.83930E-06   -0.31470E-07  1208   0.433E-03
  59 F= -.10257864E+03 E0= -.10254835E+03  d E =-.137687E-02
       N       E                     dE             d eps       ncg     rms          rms(c)
DAV:   1    -0.102579365310E+03   -0.72764E-03   -0.19231E-01  1994   0.803E-01    0.540E-02
DAV:   2    -0.102579510244E+03   -0.14493E-03   -0.15762E-03  2048   0.965E-02    0.326E-02
DAV:   3    -0.102579511682E+03   -0.14381E-05   -0.36520E-05  2086   0.357E-02    0.214E-02
DAV:   4    -0.102579523345E+03   -0.11663E-04   -0.31549E-05  2087   0.652E-02    0.172E-02
DAV:   5    -0.102579512403E+03    0.10942E-04   -0.20594E-05  1870   0.534E-02    0.530E-03
DAV:   6    -0.102579512179E+03    0.22416E-06   -0.48927E-06  2000   0.135E-02
  60 F= -.10257951E+03 E0= -.10254926E+03  d E =-.873670E-03
       N       E                     dE             d eps       ncg     rms          rms(c)
DAV:   1    -0.102580481149E+03   -0.96875E-03   -0.17315E+00  1992   0.241E+00    0.162E-01
DAV:   2    -0.102581748416E+03   -0.12673E-02   -0.14222E-02  2022   0.289E-01    0.972E-02
DAV:   3    -0.102581767805E+03   -0.19389E-04   -0.30814E-04  2076   0.866E-02    0.618E-02
DAV:   4    -0.102581876045E+03   -0.10824E-03   -0.24461E-04  2111   0.178E-01    0.488E-02
DAV:   5    -0.102581775798E+03    0.10025E-03   -0.18521E-04  2605   0.161E-01    0.158E-02
DAV:   6    -0.102581766816E+03    0.89825E-05   -0.34153E-05  2063   0.454E-02    0.611E-03
DAV:   7    -0.102581766935E+03   -0.11927E-06   -0.57732E-06  2088   0.625E-03
  61 F= -.10258177E+03 E0= -.10255161E+03  d E =-.312843E-02
       N       E                     dE             d eps       ncg     rms          rms(c)
DAV:   1    -0.102579194213E+03    0.25726E-02   -0.69272E+00  1992   0.482E+00    0.325E-01
DAV:   2    -0.102584298871E+03   -0.51047E-02   -0.57029E-02  2039   0.580E-01    0.195E-01
DAV:   3    -0.102584305903E+03   -0.70318E-05   -0.12918E-03  2076   0.203E-01    0.127E-01
DAV:   4    -0.102584752105E+03   -0.44620E-03   -0.11089E-03  2086   0.384E-01    0.102E-01
DAV:   5    -0.102584309278E+03    0.44283E-03   -0.75198E-04  2348   0.322E-01    0.312E-02
DAV:   6    -0.102584285475E+03    0.23803E-04   -0.15747E-04  2054   0.820E-02    0.126E-02
DAV:   7    -0.102584286463E+03   -0.98749E-06   -0.22500E-05  2143   0.117E-02    0.879E-03
DAV:   8    -0.102584284210E+03    0.22523E-05   -0.24287E-06  1368   0.119E-02    0.507E-03
DAV:   9    -0.102584284313E+03   -0.10233E-06   -0.71577E-06  2038   0.590E-03
  62 F= -.10258428E+03 E0= -.10255436E+03  d E =-.564580E-02
       N       E                     dE             d eps       ncg     rms          rms(c)
DAV:   1    -0.102561218513E+03    0.23066E-01   -0.27743E+01  1992   0.966E+00    0.651E-01
DAV:   2    -0.102582205952E+03   -0.20987E-01   -0.22895E-01  2045   0.116E+00    0.390E-01
DAV:   3    -0.102581871978E+03    0.33397E-03   -0.51444E-03  2076   0.396E-01    0.252E-01
DAV:   4    -0.102583558369E+03   -0.16864E-02   -0.44224E-03  2093   0.760E-01    0.203E-01
DAV:   5    -0.102581801082E+03    0.17573E-02   -0.30601E-03  2444   0.643E-01    0.615E-02
DAV:   6    -0.102581687250E+03    0.11383E-03   -0.61248E-04  2046   0.164E-01    0.252E-02
DAV:   7    -0.102581690137E+03   -0.28870E-05   -0.89566E-05  2159   0.236E-02    0.167E-02
DAV:   8    -0.102581681416E+03    0.87213E-05   -0.10352E-05  2046   0.256E-02    0.947E-03
DAV:   9    -0.102581681716E+03   -0.30018E-06   -0.22292E-05  2038   0.117E-02    0.366E-03
DAV:  10    -0.102581682119E+03   -0.40315E-06   -0.70931E-07  1336   0.257E-03
  63 F= -.10258168E+03 E0= -.10255224E+03  d E =-.304361E-02
       N       E                     dE             d eps       ncg     rms          rms(c)
DAV:   1    -0.102573881021E+03    0.78007E-02   -0.14821E+01  1992   0.706E+00    0.477E-01
DAV:   2    -0.102584887388E+03   -0.11006E-01   -0.12099E-01  2036   0.842E-01    0.286E-01
DAV:   3    -0.102584633325E+03    0.25406E-03   -0.25758E-03  2075   0.239E-01    0.181E-01
DAV:   4    -0.102585493810E+03   -0.86049E-03   -0.19893E-03  2132   0.502E-01    0.139E-01
DAV:   5    -0.102584664605E+03    0.82921E-03   -0.16108E-03  2684   0.471E-01    0.478E-02
DAV:   6    -0.102584568376E+03    0.96229E-04   -0.29252E-04  2068   0.140E-01    0.181E-02
DAV:   7    -0.102584568920E+03   -0.54424E-06   -0.49349E-05  2112   0.189E-02    0.995E-03
DAV:   8    -0.102584565812E+03    0.31078E-05   -0.33674E-06  1432   0.174E-02    0.641E-03
DAV:   9    -0.102584565884E+03   -0.72236E-07   -0.90105E-06  2038   0.738E-03
  64 F= -.10258457E+03 E0= -.10255476E+03  d E =-.592738E-02
       N       E                     dE             d eps       ncg     rms          rms(c)
DAV:   1    -0.102585177005E+03   -0.61119E-03   -0.28286E-01  1992   0.972E-01    0.629E-02
DAV:   2    -0.102585375327E+03   -0.19832E-03   -0.21332E-03  2021   0.115E-01    0.411E-02
DAV:   3    -0.102585369758E+03    0.55686E-05   -0.49721E-05  2038   0.314E-02    0.254E-02
DAV:   4    -0.102585387790E+03   -0.18032E-04   -0.38114E-05  2109   0.699E-02    0.193E-02
DAV:   5    -0.102585371070E+03    0.16720E-04   -0.30886E-05  2077   0.659E-02    0.619E-03
DAV:   6    -0.102585369354E+03    0.17156E-05   -0.56600E-06  1880   0.192E-02    0.251E-03
DAV:   7    -0.102585369518E+03   -0.16327E-06   -0.94200E-07  1272   0.257E-03
  65 F= -.10258537E+03 E0= -.10255561E+03  d E =-.803633E-03
       N       E                     dE             d eps       ncg     rms          rms(c)
DAV:   1    -0.102585550398E+03   -0.18104E-03   -0.25464E+00  1992   0.292E+00    0.189E-01
DAV:   2    -0.102587321623E+03   -0.17712E-02   -0.19236E-02  2034   0.346E-01    0.124E-01
DAV:   3    -0.102587284683E+03    0.36940E-04   -0.44928E-04  2020   0.952E-02    0.764E-02
DAV:   4    -0.102587443169E+03   -0.15849E-03   -0.34858E-04  2106   0.211E-01    0.586E-02
DAV:   5    -0.102587283189E+03    0.15998E-03   -0.28473E-04  2476   0.198E-01    0.183E-02
DAV:   6    -0.102587266017E+03    0.17172E-04   -0.49906E-05  2095   0.573E-02    0.756E-03
DAV:   7    -0.102587266869E+03   -0.85245E-06   -0.86495E-06  2096   0.764E-03
  66 F= -.10258727E+03 E0= -.10255767E+03  d E =-.270099E-02
       N       E                     dE             d eps       ncg     rms          rms(c)
DAV:   1    -0.102582144993E+03    0.51210E-02   -0.10189E+01  1992   0.584E+00    0.378E-01
DAV:   2    -0.102589166698E+03   -0.70217E-02   -0.77391E-02  2058   0.694E-01    0.247E-01
DAV:   3    -0.102589025750E+03    0.14095E-03   -0.18116E-03  2028   0.198E-01    0.154E-01
DAV:   4    -0.102589714069E+03   -0.68832E-03   -0.14501E-03  2099   0.431E-01    0.119E-01
DAV:   5    -0.102589070593E+03    0.64348E-03   -0.11598E-03  2429   0.399E-01    0.366E-02
DAV:   6    -0.102589006779E+03    0.63814E-04   -0.20673E-04  2087   0.113E-01    0.154E-02
DAV:   7    -0.102589010324E+03   -0.35456E-05   -0.35635E-05  2136   0.152E-02    0.915E-03
DAV:   8    -0.102589010240E+03    0.84343E-07   -0.23201E-06  1358   0.145E-02
  67 F= -.10258901E+03 E0= -.10255975E+03  d E =-.444436E-02
       N       E                     dE             d eps       ncg     rms          rms(c)
DAV:   1    -0.102589979434E+03   -0.96911E-03   -0.39292E-01  1994   0.112E+00    0.722E-02
DAV:   2    -0.102590276813E+03   -0.29738E-03   -0.31701E-03  2079   0.136E-01    0.444E-02
DAV:   3    -0.102590276468E+03    0.34488E-06   -0.69060E-05  2077   0.444E-02    0.282E-02
DAV:   4    -0.102590298313E+03   -0.21845E-04   -0.56974E-05  2119   0.856E-02    0.238E-02
DAV:   5    -0.102590276742E+03    0.21571E-04   -0.40048E-05  2230   0.733E-02    0.682E-03
DAV:   6    -0.102590276312E+03    0.43004E-06   -0.87218E-06  2064   0.188E-02
  68 F= -.10259028E+03 E0= -.10256114E+03  d E =-.126607E-02
       N       E                     dE             d eps       ncg     rms          rms(c)
DAV:   1    -0.102591030036E+03   -0.75329E-03   -0.35425E+00  1992   0.338E+00    0.217E-01
DAV:   2    -0.102593672568E+03   -0.26425E-02   -0.28570E-02  2045   0.408E-01    0.131E-01
DAV:   3    -0.102593637973E+03    0.34595E-04   -0.58357E-04  2086   0.111E-01    0.819E-02
DAV:   4    -0.102593825267E+03   -0.18729E-03   -0.43136E-04  2126   0.231E-01    0.660E-02
DAV:   5    -0.102593646814E+03    0.17845E-03   -0.33474E-04  2477   0.215E-01    0.209E-02
DAV:   6    -0.102593629555E+03    0.17260E-04   -0.63488E-05  2055   0.616E-02    0.859E-03
DAV:   7    -0.102593629715E+03   -0.16036E-06   -0.10776E-05  2168   0.831E-03    0.511E-03
DAV:   8    -0.102593628870E+03    0.84459E-06   -0.81229E-07  1192   0.853E-03
  69 F= -.10259363E+03 E0= -.10256485E+03  d E =-.461863E-02
       N       E                     dE             d eps       ncg     rms          rms(c)
DAV:   1    -0.102586673099E+03    0.69566E-02   -0.14182E+01  1992   0.677E+00    0.433E-01
DAV:   2    -0.102597371232E+03   -0.10698E-01   -0.11433E-01  2036   0.820E-01    0.264E-01
DAV:   3    -0.102597202497E+03    0.16873E-03   -0.24147E-03  2066   0.255E-01    0.167E-01
[...]
DAV:   4    -0.102624878877E+03   -0.18302E-05   -0.10824E-05  1918   0.230E-02    0.715E-03
DAV:   5    -0.102624881232E+03   -0.23553E-05   -0.12584E-05  1622   0.417E-02    0.867E-03
DAV:   6    -0.102624876820E+03    0.44118E-05   -0.44394E-06  1228   0.254E-02    0.141E-03
DAV:   7    -0.102624877115E+03   -0.29494E-06   -0.71819E-07  1280   0.250E-03
  97 F= -.10262488E+03 E0= -.10260331E+03  d E =-.585006E-03
       N       E                     dE             d eps       ncg     rms          rms(c)
DAV:   1    -0.102624987068E+03   -0.11025E-03   -0.53530E-02  1992   0.433E-01    0.266E-02
DAV:   2    -0.102625020108E+03   -0.33040E-04   -0.37812E-04  2062   0.518E-02    0.178E-02
DAV:   3    -0.102625019622E+03    0.48592E-06   -0.11047E-05  2072   0.124E-02    0.113E-02
DAV:   4    -0.102625022641E+03   -0.30196E-05   -0.61378E-06  1302   0.263E-02    0.685E-03
DAV:   5    -0.102625020340E+03    0.23016E-05   -0.52591E-06  1203   0.284E-02    0.337E-03
DAV:   6    -0.102625019974E+03    0.36607E-06   -0.99452E-07  1163   0.102E-02
  98 F= -.10262502E+03 E0= -.10260349E+03  d E =-.727865E-03
       N       E                     dE             d eps       ncg     rms          rms(c)
DAV:   1    -0.102624936942E+03    0.83397E-04   -0.21416E-01  1992   0.867E-01    0.530E-02
DAV:   2    -0.102625069193E+03   -0.13225E-03   -0.15153E-03  2044   0.103E-01    0.362E-02
DAV:   3    -0.102625065536E+03    0.36564E-05   -0.42855E-05  2071   0.147E-02    0.209E-02
DAV:   4    -0.102625066922E+03   -0.13854E-05   -0.92400E-06  1933   0.119E-02    0.515E-03
DAV:   5    -0.102625068912E+03   -0.19904E-05   -0.51031E-06  1302   0.260E-02    0.661E-03
DAV:   6    -0.102625066749E+03    0.21635E-05   -0.23891E-06  1197   0.189E-02    0.135E-03
DAV:   7    -0.102625067125E+03   -0.37608E-06   -0.42361E-07  1197   0.244E-03
  99 F= -.10262507E+03 E0= -.10260361E+03  d E =-.775016E-03
       N       E                     dE             d eps       ncg     rms          rms(c)
DAV:   1    -0.102625065099E+03    0.16496E-05   -0.35988E-02  1992   0.356E-01    0.217E-02
DAV:   2    -0.102625088191E+03   -0.23092E-04   -0.25222E-04  2063   0.423E-02    0.148E-02
DAV:   3    -0.102625087234E+03    0.95670E-06   -0.70194E-06  1824   0.595E-03
 100 F= -.10262509E+03 E0= -.10260360E+03  d E =-.795125E-03
       N       E                     dE             d eps       ncg     rms          rms(c)
DAV:   1    -0.102625321468E+03   -0.23328E-03   -0.20503E-02  1994   0.268E-01    0.153E-02
DAV:   2    -0.102625335755E+03   -0.14286E-04   -0.15389E-04  2072   0.325E-02    0.988E-03
DAV:   3    -0.102625335804E+03   -0.49302E-07   -0.35271E-06  1368   0.120E-02
 101 F= -.10262534E+03 E0= -.10260386E+03  d E =-.248570E-03
       N       E                     dE             d eps       ncg     rms          rms(c)
DAV:   1    -0.102625893692E+03   -0.55794E-03   -0.18535E-01  1992   0.805E-01    0.511E-02
DAV:   2    -0.102626022698E+03   -0.12901E-03   -0.14131E-03  1999   0.110E-01    0.404E-02
DAV:   3    -0.102626024611E+03   -0.19131E-05   -0.74296E-05  2042   0.785E-02    0.248E-02
DAV:   4    -0.102626029236E+03   -0.46255E-05   -0.49633E-05  2075   0.806E-02    0.202E-02
DAV:   5    -0.102626017397E+03    0.11839E-04   -0.20924E-05  2061   0.494E-02    0.457E-03
DAV:   6    -0.102626017558E+03   -0.16030E-06   -0.56987E-06  2072   0.920E-03
 102 F= -.10262602E+03 E0= -.10260457E+03  d E =-.930324E-03
       N       E                     dE             d eps       ncg     rms          rms(c)
DAV:   1    -0.102626447503E+03   -0.43011E-03   -0.74034E-01  1992   0.161E+00    0.989E-02
DAV:   2    -0.102626952472E+03   -0.50497E-03   -0.56847E-03  2005   0.194E-01    0.646E-02
DAV:   3    -0.102626944086E+03    0.83855E-05   -0.11502E-04  2103   0.281E-02    0.359E-02
DAV:   4    -0.102626952436E+03   -0.83498E-05   -0.29414E-05  2014   0.128E-02    0.113E-02
DAV:   5    -0.102626953861E+03   -0.14254E-05   -0.27964E-06  1375   0.107E-02    0.382E-03
DAV:   6    -0.102626954195E+03   -0.33376E-06   -0.21227E-06  1270   0.163E-02
 103 F= -.10262695E+03 E0= -.10260556E+03  d E =-.186696E-02
       N       E                     dE             d eps       ncg     rms          rms(c)
DAV:   1    -0.102624837734E+03    0.21161E-02   -0.29611E+00  1992   0.321E+00    0.198E-01
DAV:   2    -0.102626864283E+03   -0.20265E-02   -0.22613E-02  2023   0.388E-01    0.131E-01
DAV:   3    -0.102626814954E+03    0.49329E-04   -0.45300E-04  2111   0.627E-02    0.712E-02
DAV:   4    -0.102626861709E+03   -0.46755E-04   -0.14736E-04  2030   0.806E-02    0.347E-02
DAV:   5    -0.102626889462E+03   -0.27753E-04   -0.14228E-04  2276   0.138E-01    0.252E-02
DAV:   6    -0.102626844013E+03    0.45449E-04   -0.54625E-05  2372   0.861E-02    0.590E-03
DAV:   7    -0.102626844004E+03    0.92550E-08   -0.61000E-06  1904   0.114E-02
 104 F= -.10262684E+03 E0= -.10260556E+03  d E =-.175677E-02
       N       E                     dE             d eps       ncg     rms          rms(c)
DAV:   1    -0.102626676782E+03    0.16723E-03   -0.86523E-01  1992   0.174E+00    0.107E-01
DAV:   2    -0.102627253165E+03   -0.57638E-03   -0.65598E-03  2012   0.209E-01    0.698E-02
DAV:   3    -0.102627241049E+03    0.12116E-04   -0.13273E-04  2136   0.306E-02    0.393E-02
DAV:   4    -0.102627257799E+03   -0.16750E-04   -0.35028E-05  2046   0.277E-02    0.123E-02
DAV:   5    -0.102627268151E+03   -0.10352E-04   -0.27245E-05  2216   0.575E-02    0.139E-02
DAV:   6    -0.102627256935E+03    0.11215E-04   -0.11764E-05  1486   0.414E-02    0.256E-03
DAV:   7    -0.102627256857E+03    0.78289E-07   -0.11546E-06  1304   0.559E-03
 105 F= -.10262726E+03 E0= -.10260591E+03  d E =-.216962E-02
       N       E                     dE             d eps       ncg     rms          rms(c)
DAV:   1    -0.102627365937E+03   -0.10900E-03   -0.45042E-03  2012   0.125E-01    0.778E-03
DAV:   2    -0.102627368763E+03   -0.28256E-05   -0.32335E-05  2056   0.162E-02    0.626E-03
DAV:   3    -0.102627368822E+03   -0.59081E-07   -0.15438E-06  1238   0.109E-02
 106 F= -.10262737E+03 E0= -.10260603E+03  d E =-.111965E-03
       N       E                     dE             d eps       ncg     rms          rms(c)
DAV:   1    -0.102627655818E+03   -0.28706E-03   -0.40501E-02  1992   0.375E-01    0.256E-02
DAV:   2    -0.102627682133E+03   -0.26315E-04   -0.29718E-04  2029   0.518E-02    0.181E-02
DAV:   3    -0.102627684091E+03   -0.19578E-05   -0.22494E-05  2060   0.448E-02    0.155E-02
DAV:   4    -0.102627681291E+03    0.27996E-05   -0.10068E-05  1395   0.365E-02    0.706E-03
DAV:   5    -0.102627680778E+03    0.51328E-06   -0.34945E-06  1276   0.174E-02
 107 F= -.10262768E+03 E0= -.10260634E+03  d E =-.423921E-03
       N       E                     dE             d eps       ncg     rms          rms(c)
DAV:   1    -0.102628100221E+03   -0.41893E-03   -0.16179E-01  1992   0.750E-01    0.465E-02
DAV:   2    -0.102628202303E+03   -0.10208E-03   -0.11843E-03  2070   0.904E-02    0.325E-02
DAV:   3    -0.102628200735E+03    0.15676E-05   -0.30285E-05  2104   0.235E-02    0.203E-02
DAV:   4    -0.102628214296E+03   -0.13561E-04   -0.22649E-05  2012   0.521E-02    0.136E-02
DAV:   5    -0.102628204986E+03    0.93104E-05   -0.19723E-05  1674   0.535E-02    0.556E-03
DAV:   6    -0.102628203639E+03    0.13465E-05   -0.33581E-06  1270   0.166E-02    0.174E-03
DAV:   7    -0.102628203852E+03   -0.21211E-06   -0.76050E-07  1205   0.226E-03
 108 F= -.10262820E+03 E0= -.10260688E+03  d E =-.946995E-03
       N       E                     dE             d eps       ncg     rms          rms(c)
DAV:   1    -0.102628366552E+03   -0.16291E-03   -0.64625E-01  1992   0.150E+00    0.931E-02
DAV:   2    -0.102628783843E+03   -0.41729E-03   -0.47220E-03  2013   0.181E-01    0.657E-02
DAV:   3    -0.102628773905E+03    0.99388E-05   -0.11851E-04  2095   0.301E-02    0.375E-02
DAV:   4    -0.102628785992E+03   -0.12087E-04   -0.34466E-05  2054   0.432E-02    0.140E-02
DAV:   5    -0.102628791479E+03   -0.54873E-05   -0.41275E-05  2253   0.737E-02    0.145E-02
DAV:   6    -0.102628779922E+03    0.11557E-04   -0.12885E-05  1539   0.418E-02    0.239E-03
DAV:   7    -0.102628780395E+03   -0.47387E-06   -0.15708E-06  1344   0.436E-03
 109 F= -.10262878E+03 E0= -.10260749E+03  d E =-.152354E-02
       N       E                     dE             d eps       ncg     rms          rms(c)
DAV:   1    -0.102626561310E+03    0.22186E-02   -0.25849E+00  1992   0.300E+00    0.186E-01
DAV:   2    -0.102628242243E+03   -0.16809E-02   -0.18999E-02  2037   0.361E-01    0.132E-01
DAV:   3    -0.102628189352E+03    0.52891E-04   -0.47305E-04  2103   0.642E-02    0.768E-02
DAV:   4    -0.102628285773E+03   -0.96422E-04   -0.17865E-04  2112   0.114E-01    0.342E-02
DAV:   5    -0.102628273952E+03    0.11821E-04   -0.20566E-04  2260   0.166E-01    0.279E-02
DAV:   6    -0.102628231264E+03    0.42688E-04   -0.52767E-05  2332   0.801E-02    0.518E-03
DAV:   7    -0.102628232759E+03   -0.14953E-05   -0.70226E-06  2000   0.825E-03    0.336E-03
DAV:   8    -0.102628233702E+03   -0.94279E-06   -0.54288E-07  1262   0.259E-03
 110 F= -.10262823E+03 E0= -.10260701E+03  d E =-.976845E-03
       N       E                     dE             d eps       ncg     rms          rms(c)
DAV:   1    -0.102628009680E+03    0.22308E-03   -0.13318E+00  1992   0.215E+00    0.134E-01
DAV:   2    -0.102628863627E+03   -0.85395E-03   -0.97361E-03  2022   0.259E-01    0.949E-02
DAV:   3    -0.102628843986E+03    0.19641E-04   -0.24612E-04  2128   0.455E-02    0.548E-02
DAV:   4    -0.102628888568E+03   -0.44582E-04   -0.85471E-05  2127   0.767E-02    0.232E-02
DAV:   5    -0.102628888767E+03   -0.19872E-06   -0.99962E-05  2269   0.115E-01    0.202E-02
DAV:   6    -0.102628865588E+03    0.23179E-04   -0.26774E-05  2167   0.583E-02    0.359E-03
DAV:   7    -0.102628865523E+03    0.65018E-07   -0.35109E-06  1559   0.613E-03
 111 F= -.10262887E+03 E0= -.10260760E+03  d E =-.160867E-02
       N       E                     dE             d eps       ncg     rms          rms(c)
DAV:   1    -0.102628984185E+03   -0.11860E-03   -0.37733E-03  2054   0.111E-01    0.650E-03
DAV:   2    -0.102628986578E+03   -0.23926E-05   -0.27714E-05  2064   0.153E-02    0.529E-03
DAV:   3    -0.102628986518E+03    0.60187E-07   -0.13785E-06  1223   0.106E-02
 112 F= -.10262899E+03 E0= -.10260771E+03  d E =-.120995E-03
       N       E                     dE             d eps       ncg     rms          rms(c)
DAV:   1    -0.102629351668E+03   -0.36509E-03   -0.34023E-02  2000   0.334E-01    0.211E-02
DAV:   2    -0.102629373524E+03   -0.21857E-04   -0.25560E-04  2013   0.439E-02    0.153E-02
DAV:   3    -0.102629374679E+03   -0.11547E-05   -0.10992E-05  2060   0.287E-02    0.114E-02
DAV:   4    -0.102629375199E+03   -0.51991E-06   -0.70250E-06  1299   0.310E-02
 113 F= -.10262938E+03 E0= -.10260809E+03  d E =-.509676E-03
       N       E                     dE             d eps       ncg     rms          rms(c)
DAV:   1    -0.102629972023E+03   -0.59734E-03   -0.13612E-01  1992   0.668E-01    0.402E-02
DAV:   2    -0.102630062553E+03   -0.90530E-04   -0.10322E-03  2019   0.834E-02    0.283E-02
DAV:   3    -0.102630063300E+03   -0.74715E-06   -0.25246E-05  2099   0.296E-02    0.180E-02
DAV:   4    -0.102630075648E+03   -0.12348E-04   -0.23181E-05  2010   0.549E-02    0.146E-02
DAV:   5    -0.102630066174E+03    0.94741E-05   -0.15713E-05  1697   0.470E-02    0.376E-03
DAV:   6    -0.102630065856E+03    0.31810E-06   -0.29954E-06  1454   0.109E-02
 114 F= -.10263007E+03 E0= -.10260875E+03  d E =-.120033E-02
       N       E                     dE             d eps       ncg     rms          rms(c)
DAV:   1    -0.102630924852E+03   -0.85868E-03   -0.54316E-01  1992   0.133E+00    0.786E-02
DAV:   2    -0.102631284899E+03   -0.36005E-03   -0.40876E-03  2016   0.164E-01    0.564E-02
DAV:   3    -0.102631284015E+03    0.88394E-06   -0.83706E-05  2072   0.343E-02    0.318E-02
DAV:   4    -0.102631312647E+03   -0.28632E-04   -0.40442E-05  2096   0.592E-02    0.201E-02
DAV:   5    -0.102631303741E+03    0.89055E-05   -0.39369E-05  2176   0.727E-02    0.929E-03
DAV:   6    -0.102631298562E+03    0.51787E-05   -0.86180E-06  1752   0.309E-02    0.300E-03
DAV:   7    -0.102631298549E+03    0.13795E-07   -0.15113E-06  1310   0.420E-03
 115 F= -.10263130E+03 E0= -.10260993E+03  d E =-.243303E-02
       N       E                     dE             d eps       ncg     rms          rms(c)
DAV:   1    -0.102631771427E+03   -0.47286E-03   -0.21723E+00  1992   0.266E+00    0.158E-01
DAV:   2    -0.102633227581E+03   -0.14562E-02   -0.16376E-02  2016   0.329E-01    0.114E-01
DAV:   3    -0.102633210847E+03    0.16733E-04   -0.33708E-04  2072   0.618E-02    0.640E-02
DAV:   4    -0.102633284760E+03   -0.73913E-04   -0.11927E-04  2016   0.824E-02    0.324E-02
DAV:   5    -0.102633293789E+03   -0.90281E-05   -0.12240E-04  2193   0.127E-01    0.212E-02
DAV:   6    -0.102633263898E+03    0.29891E-04   -0.38492E-05  2281   0.709E-02    0.521E-03
DAV:   7    -0.102633263534E+03    0.36380E-06   -0.46824E-06  1832   0.101E-02
 116 F= -.10263326E+03 E0= -.10261178E+03  d E =-.439801E-02
       N       E                     dE             d eps       ncg     rms          rms(c)
DAV:   1    -0.102629302884E+03    0.39610E-02   -0.86964E+00  1992   0.533E+00    0.321E-01
DAV:   2    -0.102635355559E+03   -0.60527E-02   -0.66034E-02  2025   0.661E-01    0.236E-01
DAV:   3    -0.102635240970E+03    0.11459E-03   -0.13955E-03  2073   0.131E-01    0.131E-01
DAV:   4    -0.102635449115E+03   -0.20815E-03   -0.53820E-04  2017   0.189E-01    0.721E-02
DAV:   5    -0.102635424621E+03    0.24494E-04   -0.54853E-04  2194   0.269E-01    0.414E-02
DAV:   6    -0.102635320004E+03    0.10462E-03   -0.15325E-04  2281   0.137E-01    0.109E-02
DAV:   7    -0.102635318554E+03    0.14501E-05   -0.21425E-05  2072   0.200E-02    0.581E-03
DAV:   8    -0.102635318253E+03    0.30105E-06   -0.21958E-06  1454   0.405E-03
 117 F= -.10263532E+03 E0= -.10261359E+03  d E =-.645273E-02
       N       E                     dE             d eps       ncg     rms          rms(c)
DAV:   1    -0.102635732536E+03   -0.41398E-03   -0.23441E-01  1992   0.867E-01    0.783E-02
DAV:   2    -0.102635898389E+03   -0.16585E-03   -0.23621E-03  2030   0.116E-01    0.606E-02
DAV:   3    -0.102635882718E+03    0.15670E-04   -0.96773E-05  2128   0.475E-02    0.355E-02
DAV:   4    -0.102635924622E+03   -0.41904E-04   -0.10146E-04  2240   0.107E-01    0.287E-02
DAV:   5    -0.102635871779E+03    0.52844E-04   -0.67703E-05  2214   0.996E-02    0.753E-03
DAV:   6    -0.102635870035E+03    0.17436E-05   -0.79760E-06  1952   0.216E-02    0.318E-03
DAV:   7    -0.102635871092E+03   -0.10565E-05   -0.18209E-06  1373   0.349E-03    0.163E-03
DAV:   8    -0.102635872107E+03   -0.10153E-05   -0.22934E-07  1208   0.288E-03    0.103E-03
DAV:   9    -0.102635873887E+03   -0.17800E-05   -0.19567E-07  1166   0.138E-03    0.517E-04
DAV:  10    -0.102635874850E+03   -0.96299E-06   -0.57162E-08  1206   0.538E-04
 118 F= -.10263587E+03 E0= -.10261407E+03  d E =-.556597E-03
       N       E                     dE             d eps       ncg     rms          rms(c)
DAV:   1    -0.102635876056E+03   -0.21693E-05   -0.21942E-05  2005   0.840E-03    0.806E-04
DAV:   2    -0.102635876410E+03   -0.35355E-06   -0.21947E-07  1224   0.113E-03
 119 F= -.10263588E+03 E0= -.10261407E+03  d E =-.558157E-03
       N       E                     dE             d eps       ncg     rms          rms(c)
DAV:   1    -0.102636169956E+03   -0.29390E-03   -0.10441E-01  1992   0.582E-01    0.327E-02
DAV:   2    -0.102636237724E+03   -0.67768E-04   -0.76479E-04  2026   0.725E-02    0.256E-02
DAV:   3    -0.102636236869E+03    0.85501E-06   -0.15397E-05  2080   0.129E-02    0.145E-02
DAV:   4    -0.102636239114E+03   -0.22449E-05   -0.50560E-06  1735   0.130E-02    0.600E-03
DAV:   5    -0.102636240078E+03   -0.96421E-06   -0.42218E-06  1203   0.235E-02
 120 F= -.10263624E+03 E0= -.10261438E+03  d E =-.363668E-03
       N       E                     dE             d eps       ncg     rms          rms(c)
DAV:   1    -0.102636484205E+03   -0.24509E-03   -0.93971E-01  1992   0.175E+00    0.983E-02
DAV:   2    -0.102637100770E+03   -0.61656E-03   -0.69141E-03  2025   0.218E-01    0.770E-02
DAV:   3    -0.102637095847E+03    0.49231E-05   -0.14001E-04  2083   0.375E-02    0.435E-02
DAV:   4    -0.102637109422E+03   -0.13575E-04   -0.40180E-05  2036   0.272E-02    0.150E-02
DAV:   5    -0.102637119809E+03   -0.10388E-04   -0.28379E-05  2154   0.601E-02    0.140E-02
DAV:   6    -0.102637108145E+03    0.11664E-04   -0.13010E-05  1498   0.429E-02    0.275E-03
DAV:   7    -0.102637108162E+03   -0.16706E-07   -0.11297E-06  1284   0.555E-03
 121 F= -.10263711E+03 E0= -.10261509E+03  d E =-.123175E-02
       N       E                     dE             d eps       ncg     rms          rms(c)
DAV:   1    -0.102635074035E+03    0.20341E-02   -0.37590E+00  1992   0.349E+00    0.200E-01
DAV:   2    -0.102637551090E+03   -0.24771E-02   -0.27676E-02  2026   0.437E-01    0.159E-01
DAV:   3    -0.102637519872E+03    0.31218E-04   -0.59925E-04  2076   0.772E-02    0.897E-02
DAV:   4    -0.102637562027E+03   -0.42155E-04   -0.17292E-04  2004   0.326E-02    0.283E-02
DAV:   5    -0.102637572519E+03   -0.10492E-04   -0.24917E-05  2168   0.466E-02    0.129E-02
DAV:   6    -0.102637567144E+03    0.53752E-05   -0.21198E-05  1901   0.538E-02    0.858E-03
DAV:   7    -0.102637564171E+03    0.29730E-05   -0.48350E-06  1285   0.233E-02    0.340E-03
DAV:   8    -0.102637565171E+03   -0.99977E-06   -0.29747E-06  1635   0.319E-03
 122 F= -.10263757E+03 E0= -.10261521E+03  d E =-.168876E-02
       N       E                     dE             d eps       ncg     rms          rms(c)
DAV:   1    -0.102637781453E+03   -0.21728E-03   -0.23868E-01  1992   0.874E-01    0.745E-02
DAV:   2    -0.102637978102E+03   -0.19665E-03   -0.24658E-03  2022   0.113E-01    0.485E-02
DAV:   3    -0.102637965885E+03    0.12217E-04   -0.72246E-05  2128   0.389E-02    0.267E-02
DAV:   4    -0.102637984923E+03   -0.19039E-04   -0.59132E-05  2192   0.781E-02    0.215E-02
DAV:   5    -0.102637961222E+03    0.23701E-04   -0.38889E-05  2045   0.739E-02    0.740E-03
DAV:   6    -0.102637958793E+03    0.24294E-05   -0.51098E-06  1560   0.199E-02    0.291E-03
DAV:   7    -0.102637958893E+03   -0.99652E-07   -0.13920E-06  1301   0.281E-03
 123 F= -.10263796E+03 E0= -.10261554E+03  d E =-.393722E-03
       N       E                     dE             d eps       ncg     rms          rms(c)
DAV:   1    -0.102637964774E+03   -0.59811E-05   -0.37890E-03  2080   0.111E-01    0.921E-03
DAV:   2    -0.102637968272E+03   -0.34982E-05   -0.39638E-05  2030   0.142E-02    0.624E-03
DAV:   3    -0.102637968043E+03    0.22911E-06   -0.10707E-06  1335   0.344E-03
 124 F= -.10263797E+03 E0= -.10261555E+03  d E =-.402872E-03
       N       E                     dE             d eps       ncg     rms          rms(c)
DAV:   1    -0.102637967962E+03    0.31042E-06   -0.55149E-05  2039   0.150E-02    0.258E-03
DAV:   2    -0.102637968970E+03   -0.10080E-05   -0.29103E-06  1288   0.177E-02    0.432E-03
DAV:   3    -0.102637967844E+03    0.11260E-05   -0.11561E-06  1183   0.131E-02    0.462E-04
DAV:   4    -0.102637967876E+03   -0.32422E-07   -0.97570E-08  1184   0.159E-03
 125 F= -.10263797E+03 E0= -.10261555E+03  d E =-.402706E-03
       N       E                     dE             d eps       ncg     rms          rms(c)
DAV:   1    -0.102638017790E+03   -0.49946E-04   -0.23261E-03  2014   0.893E-02    0.320E-03
DAV:   2    -0.102638018980E+03   -0.11903E-05   -0.14147E-05  2072   0.106E-02    0.204E-03
DAV:   3    -0.102638018924E+03    0.55705E-07   -0.20034E-07  1134   0.188E-03
 126 F= -.10263802E+03 E0= -.10261560E+03  d E =-.510480E-04
