Cu-Ag alloy CO adsorption (RPBE, matches
            1
     8.665594    0.000000    0.000000
     4.332797    7.504624    0.000000
     0.000000    0.000000   31.075428
   Ag   C    O    C    O 
    36     1     1     1     1
Direct configuration=     1
   0.00000000  0.00000000  0.38615720
   0.33333333  0.00000000  0.38615720
   0.66666667  0.00000000  0.38615720
   0.00000000  0.33333333  0.38615720
   0.33333333  0.33333333  0.38615720
   0.66666667  0.33333333  0.38615720
   0.00000000  0.66666667  0.38615720
   0.33333333  0.66666667  0.38615720
   0.66666667  0.66666667  0.38615720
   0.11111111  0.11111111  0.46205240
   0.44444444  0.11111111  0.46205240
   0.77777778  0.11111111  0.46205240
   0.11111111  0.44444444  0.46205240
   0.44444444  0.44444444  0.46205240
   0.77777778  0.44444444  0.46205240
   0.11111111  0.77777778  0.46205240
   0.44444444  0.77777778  0.46205240
   0.77777778  0.77777778  0.46205240
   0.88888889  0.22222222  0.53794760
   0.22222222  0.22222222  0.53794760
   0.55555556  0.22222222  0.53794760
   0.88888889  0.55555556  0.53794760
   0.22222222  0.55555556  0.53794760
   0.55555556  0.55555556  0.53794760
   0.88888889  0.88888889  0.53794760
   0.22222222  0.88888889  0.53794760
   0.55555556  0.88888889  0.53794760
   0.00000000  0.00000000  0.61384280
   0.33333333  0.00000000  0.61384280
   0.66666667  0.00000000  0.61384280
   0.00000000  0.33333333  0.61384280
   0.33333333  0.33333333  0.61384280
   0.66666667  0.33333333  0.61384280
   0.00000000  0.66666667  0.61384280
   0.33333333  0.66666667  0.61384280
   0.66666667  0.66666667  0.61384280
   0.00000000  0.00000000  0.67176638
   0.00000000  0.00000000  0.70812952
   0.66666667  0.66666667  0.67176638
   0.66666667  0.66666667  0.70812952
Direct configuration=     2
   0.00000000  0.00000000  0.38615720
   0.33333333  0.00000000  0.38615720
   0.66666667  0.00000000  0.38615720
   0.00000000  0.33333333  0.38615720
   0.33333333  0.33333333  0.38615720
   0.66666667  0.33333333  0.38615720
   0.00000000  0.66666667  0.38615720
   0.33333333  0.66666667  0.38615720
   0.66666667  0.66666667  0.38615720
   0.11111111  0.11111111  0.46205240
   0.44444444  0.11111111  0.46205240
   0.77777778  0.11111111  0.46205240
   0.11111111  0.44444444  0.46205240
   0.44444444  0.44444444  0.46205240
   0.77777778  0.44444444  0.46205240
   0.11111111  0.77777778  0.46205240
   0.44444444  0.77777778  0.46205240
   0.77777778  0.77777778  0.46205240
   0.88911614  0.22176772  0.53804138
   0.22227239  0.22227239  0.53794049
   0.55545522  0.22227239  0.53794049
   0.88832387  0.55583806  0.53794468
   0.22227239  0.55545522  0.53794049
   0.55583806  0.55583806  0.53794468
   0.88911614  0.88911614  0.53804138
   0.22176772  0.88911614  0.53804138
   0.55583806  0.88832387  0.53794468
   0.00000000  1.00000000  0.60700449
   0.33327246  0.00113178  0.61405245
   0.66559577  0.00113178  0.61405245
   0.00113178  0.33327246  0.61405245
   0.33333333  0.33333333  0.61426805
   0.66559577  0.33327246  0.61405245
   0.00113178  0.66559577  0.61405245
   0.33327246  0.66559577  0.61405245
   0.66666667  0.66666667  0.60698909
   0.00000000  1.00000000  0.67353964
   0.00000000  1.00000000  0.71441877
   0.66666667  0.66666667  0.67356237
   0.66666667  0.66666667  0.71440704
Direct configuration=     3
   0.00000000  0.00000000  0.38615720
   0.33333333  0.00000000  0.38615720
   0.66666667  0.00000000  0.38615720
   0.00000000  0.33333333  0.38615720
   0.33333333  0.33333333  0.38615720
   0.66666667  0.33333333  0.38615720
   0.00000000  0.66666667  0.38615720
   0.33333333  0.66666667  0.38615720
   0.66666667  0.66666667  0.38615720
   0.11111111  0.11111111  0.46205240
   0.44444444  0.11111111  0.46205240
   0.77777778  0.11111111  0.46205240
   0.11111111  0.44444444  0.46205240
   0.44444444  0.44444444  0.46205240
   0.77777778  0.44444444  0.46205240
   0.11111111  0.77777778  0.46205240
   0.44444444  0.77777778  0.46205240
   0.77777778  0.77777778  0.46205240
   0.88899634  0.22200733  0.53799194
   0.22224594  0.22224594  0.53794424
   0.55550812  0.22224594  0.53794424
   0.88862174  0.55568913  0.53794622
   0.22224594  0.55550812  0.53794424
   0.55568913  0.55568913  0.53794622
   0.88899634  0.88899634  0.53799194
   0.22200733  0.88899634  0.53799194
   0.55568913  0.88862174  0.53794622
   0.00000000  0.00000000  0.61060951
   0.33330455  0.00053513  0.61394193
   0.66616032  0.00053513  0.61394193
   0.00053513  0.33330455  0.61394193
   0.33333333  0.33333333  0.61404387
   0.66616032  0.33330455  0.61394193
   0.00053513  0.66616032  0.61394193
   0.33330455  0.66616032  0.61394193
   0.66666667  0.66666667  0.61060223
   0.00000000  0.00000000  0.67260481
   0.00000000  0.00000000  0.71110320
   0.66666667  0.66666667  0.67261556
   0.66666667  0.66666667  0.71109766
Direct configuration=     4
   0.00000000  0.00000000  0.38615720
   0.33333333  0.00000000  0.38615720
   0.66666667  0.00000000  0.38615720
   0.00000000  0.33333333  0.38615720
   0.33333333  0.33333333  0.38615720
   0.66666667  0.33333333  0.38615720
   0.00000000  0.66666667  0.38615720
   0.33333333  0.66666667  0.38615720
   0.66666667  0.66666667  0.38615720
   0.11111111  0.11111111  0.46205240
   0.44444444  0.11111111  0.46205240
   0.77777778  0.11111111  0.46205240
   0.11111111  0.44444444  0.46205240
   0.44444444  0.44444444  0.46205240
   0.77777778  0.44444444  0.46205240
   0.11111111  0.77777778  0.46205240
   0.44444444  0.77777778  0.46205240
   0.77777778  0.77777778  0.46205240
   0.88901140  0.22197720  0.53798279
   0.22229750  0.22229750  0.53794199
   0.55540501  0.22229750  0.53794199
   0.88849578  0.55575211  0.53785049
   0.22229750  0.55540501  0.53794199
   0.55575211  0.55575211  0.53785049
   0.88901140  0.88901140  0.53798279
   0.22197720  0.88901140  0.53798279
   0.55575211  0.88849578  0.53785049
   0.00000000  1.00000000  0.60660762
   0.33325704  0.00148818  0.61416163
   0.66525478  0.00148818  0.61416163
   0.00148818  0.33325704  0.61416163
   0.33333333  0.33333333  0.61443077
   0.66525478  0.33325704  0.61416163
   0.00148818  0.66525478  0.61416163
   0.33325704  0.66525478  0.61416163
   0.66666667  0.66666667  0.60658858
   0.00000000  1.00000000  0.67715603
   0.00000000  1.00000000  0.71187652
   0.66666667  0.66666667  0.67715322
   0.66666667  0.66666667  0.71188735
Direct configuration=     5
   0.00000000  0.00000000  0.38615720
   0.33333333  0.00000000  0.38615720
   0.66666667  0.00000000  0.38615720
   0.00000000  0.33333333  0.38615720
   0.33333333  0.33333333  0.38615720
   0.66666667  0.33333333  0.38615720
   0.00000000  0.66666667  0.38615720
   0.33333333  0.66666667  0.38615720
   0.66666667  0.66666667  0.38615720
   0.11111111  0.11111111  0.46205240
   0.44444444  0.11111111  0.46205240
   0.77777778  0.11111111  0.46205240
   0.11111111  0.44444444  0.46205240
   0.44444444  0.44444444  0.46205240
   0.77777778  0.44444444  0.46205240
   0.11111111  0.77777778  0.46205240
   0.44444444  0.77777778  0.46205240
   0.77777778  0.77777778  0.46205240
   0.88900244  0.22199511  0.53798823
   0.22226685  0.22226685  0.53794333
   0.55546631  0.22226685  0.53794333
   0.88857066  0.55571467  0.53790740
   0.22226685  0.55546631  0.53794333
   0.55571467  0.55571467  0.53790740
   0.88900244  0.88900244  0.53798823
   0.22199511  0.88900244  0.53798823
   0.55571467  0.88857066  0.53790740
   0.00000000  0.00000000  0.60898677
   0.33328528  0.00092158  0.61403102
   0.66579313  0.00092158  0.61403102
   0.00092158  0.33328528  0.61403102
   0.33333333  0.33333333  0.61420075
   0.66579313  0.33328528  0.61403102
   0.00092158  0.66579313  0.61403102
   0.33328528  0.66579313  0.61403102
   0.66666667  0.66666667  0.60897472
   0.00000000  0.00000000  0.67445030
   0.00000000  0.00000000  0.71141677
   0.66666667  0.66666667  0.67445555
   0.66666667  0.66666667  0.71141787
Direct configuration=     6
   0.00000000  0.00000000  0.38615720
   0.33333333  0.00000000  0.38615720
   0.66666667  0.00000000  0.38615720
   0.00000000  0.33333333  0.38615720
   0.33333333  0.33333333  0.38615720
   0.66666667  0.33333333  0.38615720
   0.00000000  0.66666667  0.38615720
   0.33333333  0.66666667  0.38615720
   0.66666667  0.66666667  0.38615720
   0.11111111  0.11111111  0.46205240
   0.44444444  0.11111111  0.46205240
   0.77777778  0.11111111  0.46205240
   0.11111111  0.44444444  0.46205240
   0.44444444  0.44444444  0.46205240
   0.77777778  0.44444444  0.46205240
   0.11111111  0.77777778  0.46205240
   0.44444444  0.77777778  0.46205240
   0.77777778  0.77777778  0.46205240
   0.88882098  0.22235804  0.53789196
   0.22230743  0.22230743  0.53793900
   0.55538514  0.22230743  0.53793900
   0.88887421  0.55556289  0.53776107
   0.22230743  0.55538514  0.53793900
   0.55556289  0.55556289  0.53776107
   0.88882098  0.88882098  0.53789196
   0.22235804  0.88882098  0.53789196
   0.55556289  0.88887421  0.53776107
   0.00000000  1.00000000  0.60842669
   0.33326752  0.00139941  0.61417485
   0.66533306  0.00139941  0.61417485
   0.00139941  0.33326752  0.61417485
   0.33333333  0.33333333  0.61443625
   0.66533306  0.33326752  0.61417485
   0.00139941  0.66533306  0.61417485
   0.33326752  0.66533306  0.61417485
   0.66666667  0.66666667  0.60840323
   0.00000000  1.00000000  0.67508632
   0.00000000  1.00000000  0.71239928
   0.66666667  0.66666667  0.67509098
   0.66666667  0.66666667  0.71240526
Direct configuration=     7
   0.00000000  0.00000000  0.38615720
   0.33333333  0.00000000  0.38615720
   0.66666667  0.00000000  0.38615720
   0.00000000  0.33333333  0.38615720
   0.33333333  0.33333333  0.38615720
   0.66666667  0.33333333  0.38615720
   0.00000000  0.66666667  0.38615720
   0.33333333  0.66666667  0.38615720
   0.66666667  0.66666667  0.38615720
   0.11111111  0.11111111  0.46205240
   0.44444444  0.11111111  0.46205240
   0.77777778  0.11111111  0.46205240
   0.11111111  0.44444444  0.46205240
   0.44444444  0.44444444  0.46205240
   0.77777778  0.44444444  0.46205240
   0.11111111  0.77777778  0.46205240
   0.44444444  0.77777778  0.46205240
   0.77777778  0.77777778  0.46205240
   0.88867788  0.22264424  0.53781604
   0.22233943  0.22233943  0.53793559
   0.55532113  0.22233943  0.53793559
   0.88911359  0.55544321  0.53764568
   0.22233943  0.55532113  0.53793559
   0.55544321  0.55544321  0.53764568
   0.88867788  0.88867788  0.53781604
   0.22264424  0.88867788  0.53781604
   0.55544321  0.88911359  0.53764568
   0.00000000  0.00000000  0.60798502
   0.33325351  0.00177622  0.61428827
   0.66497026  0.00177622  0.61428827
   0.00177622  0.33325351  0.61428827
   0.33333333  0.33333333  0.61462196
   0.66497026  0.33325351  0.61428827
   0.00177622  0.66497026  0.61428827
   0.33325351  0.66497026  0.61428827
   0.66666667  0.66666667  0.60795256
   0.00000000  0.00000000  0.67558788
   0.00000000  0.00000000  0.71317407
   0.66666667  0.66666667  0.67559207
   0.66666667  0.66666667  0.71318390
Direct configuration=     8
   0.00000000  0.00000000  0.38615720
   0.33333333  0.00000000  0.38615720
   0.66666667  0.00000000  0.38615720
   0.00000000  0.33333333  0.38615720
   0.33333333  0.33333333  0.38615720
   0.66666667  0.33333333  0.38615720
   0.00000000  0.66666667  0.38615720
   0.33333333  0.66666667  0.38615720
   0.66666667  0.66666667  0.38615720
   0.11111111  0.11111111  0.46205240
   0.44444444  0.11111111  0.46205240
   0.77777778  0.11111111  0.46205240
   0.11111111  0.44444444  0.46205240
   0.44444444  0.44444444  0.46205240
   0.77777778  0.44444444  0.46205240
   0.11111111  0.77777778  0.46205240
   0.44444444  0.77777778  0.46205240
   0.77777778  0.77777778  0.46205240
   0.88853261  0.22293478  0.53774417
   0.22236524  0.22236524  0.53793544
   0.55526953  0.22236524  0.53793544
   0.88936546  0.55531727  0.53753948
   0.22236524  0.55526953  0.53793544
   0.55531727  0.55531727  0.53753948
   0.88853261  0.88853261  0.53774417
   0.22293478  0.88853261  0.53774417
   0.55531727  0.88936546  0.53753948
   0.00000000  1.00000000  0.60782523
   0.33324511  0.00205914  0.61438374
   0.66469575  0.00205914  0.61438374
   0.00205914  0.33324511  0.61438374
   0.33333333  0.33333333  0.61478099
   0.66469575  0.33324511  0.61438374
   0.00205914  0.66469575  0.61438374
   0.33324511  0.66469575  0.61438374
   0.66666667  0.66666667  0.60778752
   0.00000000  1.00000000  0.67613505
   0.00000000  1.00000000  0.71354562
   0.66666667  0.66666667  0.67614367
   0.66666667  0.66666667  0.71355336
Direct configuration=     9
   0.00000000  0.00000000  0.38615720
   0.33333333  0.00000000  0.38615720
   0.66666667  0.00000000  0.38615720
   0.00000000  0.33333333  0.38615720
   0.33333333  0.33333333  0.38615720
   0.66666667  0.33333333  0.38615720
   0.00000000  0.66666667  0.38615720
   0.33333333  0.66666667  0.38615720
   0.66666667  0.66666667  0.38615720
   0.11111111  0.11111111  0.46205240
   0.44444444  0.11111111  0.46205240
   0.77777778  0.11111111  0.46205240
   0.11111111  0.44444444  0.46205240
   0.44444444  0.44444444  0.46205240
   0.77777778  0.44444444  0.46205240
   0.11111111  0.77777778  0.46205240
   0.44444444  0.77777778  0.46205240
   0.77777778  0.77777778  0.46205240
   0.88809680  0.22380639  0.53752855
   0.22244265  0.22244265  0.53793499
   0.55511470  0.22244265  0.53793499
   0.89012108  0.55493946  0.53722090
   0.22244265  0.55511470  0.53793499
   0.55493946  0.55493946  0.53722090
   0.88809680  0.88809680  0.53752855
   0.22380639  0.88809680  0.53752855
   0.55493946  0.89012108  0.53722090
   0.00000000  0.00000000  0.60734587
   0.33321991  0.00290788  0.61467016
   0.66387221  0.00290788  0.61467016
   0.00290788  0.33321991  0.61467016
   0.33333333  0.33333333  0.61525811
   0.66387221  0.33321991  0.61467016
   0.00290788  0.66387221  0.61467016
   0.33321991  0.66387221  0.61467016
   0.66666667  0.66666667  0.60729238
   0.00000000  0.00000000  0.67777657
   0.00000000  0.00000000  0.71466026
   0.66666667  0.66666667  0.67779846
   0.66666667  0.66666667  0.71466172
Direct configuration=    10
   0.00000000  0.00000000  0.38615720
   0.33333333  0.00000000  0.38615720
   0.66666667  0.00000000  0.38615720
   0.00000000  0.33333333  0.38615720
   0.33333333  0.33333333  0.38615720
   0.66666667  0.33333333  0.38615720
   0.00000000  0.66666667  0.38615720
   0.33333333  0.66666667  0.38615720
   0.66666667  0.66666667  0.38615720
   0.11111111  0.11111111  0.46205240
   0.44444444  0.11111111  0.46205240
   0.77777778  0.11111111  0.46205240
   0.11111111  0.44444444  0.46205240
   0.44444444  0.44444444  0.46205240
   0.77777778  0.44444444  0.46205240
   0.11111111  0.77777778  0.46205240
   0.44444444  0.77777778  0.46205240
   0.77777778  0.77777778  0.46205240
   0.88823938  0.22352125  0.53759909
   0.22241732  0.22241732  0.53793514
   0.55516535  0.22241732  0.53793514
   0.88987389  0.55506306  0.53732512
   0.22241732  0.55516535  0.53793514
   0.55506306  0.55506306  0.53732512
   0.88823938  0.88823938  0.53759909
   0.22352125  0.88823938  0.53759909
   0.55506306  0.88987389  0.53732512
   0.00000000  0.00000000  0.60750269
   0.33322816  0.00263022  0.61457646
   0.66414162  0.00263022  0.61457646
   0.00263022  0.33322816  0.61457646
   0.33333333  0.33333333  0.61510202
   0.66414162  0.33322816  0.61457646
   0.00263022  0.66414162  0.61457646
   0.33322816  0.66414162  0.61457646
   0.66666667  0.66666667  0.60745436
   0.00000000  0.00000000  0.67723956
   0.00000000  0.00000000  0.71429561
   0.66666667  0.66666667  0.67725711
   0.66666667  0.66666667  0.71429912
Direct configuration=    11
   0.00000000  0.00000000  0.38615720
   0.33333333  0.00000000  0.38615720
   0.66666667  0.00000000  0.38615720
   0.00000000  0.33333333  0.38615720
   0.33333333  0.33333333  0.38615720
   0.66666667  0.33333333  0.38615720
   0.00000000  0.66666667  0.38615720
   0.33333333  0.66666667  0.38615720
   0.66666667  0.66666667  0.38615720
   0.11111111  0.11111111  0.46205240
   0.44444444  0.11111111  0.46205240
   0.77777778  0.11111111  0.46205240
   0.11111111  0.44444444  0.46205240
   0.44444444  0.44444444  0.46205240
   0.77777778  0.44444444  0.46205240
   0.11111111  0.77777778  0.46205240
   0.44444444  0.77777778  0.46205240
   0.77777778  0.77777778  0.46205240
   0.88804077  0.22391845  0.53750936
   0.22244777  0.22244777  0.53794275
   0.55510446  0.22244777  0.53794275
   0.89022061  0.55488970  0.53719668
   0.22244777  0.55510446  0.53794275
   0.55488970  0.55488970  0.53719668
   0.88804077  0.88804077  0.53750936
   0.22391845  0.88804077  0.53750936
   0.55488970  0.89022061  0.53719668
   0.00000000  0.00000000  0.60758498
   0.33322712  0.00290329  0.61468961
   0.66386959  0.00290329  0.61468961
   0.00290329  0.33322712  0.61468961
   0.33333333  0.33333333  0.61529868
   0.66386959  0.33322712  0.61468961
   0.00290329  0.66386959  0.61468961
   0.33322712  0.66386959  0.61468961
   0.66666667  0.66666667  0.60752397
   0.00000000  0.00000000  0.67765787
   0.00000000  0.00000000  0.71482623
   0.66666667  0.66666667  0.67767190
   0.66666667  0.66666667  0.71483494
Direct configuration=    12
   0.00000000  0.00000000  0.38615720
   0.33333333  0.00000000  0.38615720
   0.66666667  0.00000000  0.38615720
   0.00000000  0.33333333  0.38615720
   0.33333333  0.33333333  0.38615720
   0.66666667  0.33333333  0.38615720
   0.00000000  0.66666667  0.38615720
   0.33333333  0.66666667  0.38615720
   0.66666667  0.66666667  0.38615720
   0.11111111  0.11111111  0.46205240
   0.44444444  0.11111111  0.46205240
   0.77777778  0.11111111  0.46205240
   0.11111111  0.44444444  0.46205240
   0.44444444  0.44444444  0.46205240
   0.77777778  0.44444444  0.46205240
   0.11111111  0.77777778  0.46205240
   0.44444444  0.77777778  0.46205240
   0.77777778  0.77777778  0.46205240
   0.88744497  0.22511005  0.53724019
   0.22253911  0.22253911  0.53796561
   0.55492179  0.22253911  0.53796561
   0.89126077  0.55436961  0.53681136
   0.22253911  0.55492179  0.53796561
   0.55436961  0.55436961  0.53681136
   0.88744497  0.88744497  0.53724019
   0.22511005  0.88744497  0.53724019
   0.55436961  0.89126077  0.53681136
   0.00000000  1.00000000  0.60783185
   0.33322402  0.00372248  0.61502905
   0.66305350  0.00372248  0.61502905
   0.00372248  0.33322402  0.61502905
   0.33333333  0.33333333  0.61588867
   0.66305350  0.33322402  0.61502905
   0.00372248  0.66305350  0.61502905
   0.33322402  0.66305350  0.61502905
   0.66666667  0.66666667  0.60773280
   0.00000000  1.00000000  0.67891281
   0.00000000  1.00000000  0.71641808
   0.66666667  0.66666667  0.67891626
   0.66666667  0.66666667  0.71644238
Direct configuration=    13
   0.00000000  0.00000000  0.38615720
   0.33333333  0.00000000  0.38615720
   0.66666667  0.00000000  0.38615720
   0.00000000  0.33333333  0.38615720
   0.33333333  0.33333333  0.38615720
   0.66666667  0.33333333  0.38615720
   0.00000000  0.66666667  0.38615720
   0.33333333  0.66666667  0.38615720
   0.66666667  0.66666667  0.38615720
   0.11111111  0.11111111  0.46205240
   0.44444444  0.11111111  0.46205240
   0.77777778  0.11111111  0.46205240
   0.11111111  0.44444444  0.46205240
   0.44444444  0.44444444  0.46205240
   0.77777778  0.44444444  0.46205240
   0.11111111  0.77777778  0.46205240
   0.44444444  0.77777778  0.46205240
   0.77777778  0.77777778  0.46205240
   0.88722974  0.22554051  0.53715483
   0.22256684  0.22256684  0.53798526
   0.55486633  0.22256684  0.53798526
   0.89163697  0.55418152  0.53668432
   0.22256684  0.55486633  0.53798526
   0.55418152  0.55418152  0.53668432
   0.88722974  0.88722974  0.53715483
   0.22554051  0.88722974  0.53715483
   0.55418152  0.89163697  0.53668432
   0.00000000  0.00000000  0.60810077
   0.33323360  0.00396044  0.61515875
   0.66280596  0.00396044  0.61515875
   0.00396044  0.33323360  0.61515875
   0.33333333  0.33333333  0.61612837
   0.66280596  0.33323360  0.61515875
   0.00396044  0.66280596  0.61515875
   0.33323360  0.66280596  0.61515875
   0.66666667  0.66666667  0.60798049
   0.00000000  0.00000000  0.67952985
   0.00000000  0.00000000  0.71684244
   0.66666667  0.66666667  0.67954339
   0.66666667  0.66666667  0.71685759
Direct configuration=    14
   0.00000000  0.00000000  0.38615720
   0.33333333  0.00000000  0.38615720
   0.66666667  0.00000000  0.38615720
   0.00000000  0.33333333  0.38615720
   0.33333333  0.33333333  0.38615720
   0.66666667  0.33333333  0.38615720
   0.00000000  0.66666667  0.38615720
   0.33333333  0.66666667  0.38615720
   0.66666667  0.66666667  0.38615720
   0.11111111  0.11111111  0.46205240
   0.44444444  0.11111111  0.46205240
   0.77777778  0.11111111  0.46205240
   0.11111111  0.44444444  0.46205240
   0.44444444  0.44444444  0.46205240
   0.77777778  0.44444444  0.46205240
   0.11111111  0.77777778  0.46205240
   0.44444444  0.77777778  0.46205240
   0.77777778  0.77777778  0.46205240
   0.88682639  0.22634722  0.53699484
   0.22261880  0.22261880  0.53802210
   0.55476239  0.22261880  0.53802210
   0.89234199  0.55382900  0.53644622
   0.22261880  0.55476239  0.53802210
   0.55382900  0.55382900  0.53644622
   0.88682639  0.88682639  0.53699484
   0.22634722  0.88682639  0.53699484
   0.55382900  0.89234199  0.53644622
   0.00000000  1.00000000  0.60860473
   0.33325155  0.00440638  0.61540181
   0.66234207  0.00440638  0.61540181
   0.00440638  0.33325155  0.61540181
   0.33333333  0.33333333  0.61657760
   0.66234207  0.33325155  0.61540181
   0.00440638  0.66234207  0.61540181
   0.33325155  0.66234207  0.61540181
   0.66666667  0.66666667  0.60844468
   0.00000000  1.00000000  0.68068622
   0.00000000  1.00000000  0.71763773
   0.66666667  0.66666667  0.68071868
   0.66666667  0.66666667  0.71763573
Direct configuration=    15
   0.00000000  0.00000000  0.38615720
   0.33333333  0.00000000  0.38615720
   0.66666667  0.00000000  0.38615720
   0.00000000  0.33333333  0.38615720
   0.33333333  0.33333333  0.38615720
   0.66666667  0.33333333  0.38615720
   0.00000000  0.66666667  0.38615720
   0.33333333  0.66666667  0.38615720
   0.66666667  0.66666667  0.38615720
   0.11111111  0.11111111  0.46205240
   0.44444444  0.11111111  0.46205240
   0.77777778  0.11111111  0.46205240
   0.11111111  0.44444444  0.46205240
   0.44444444  0.44444444  0.46205240
   0.77777778  0.44444444  0.46205240
   0.11111111  0.77777778  0.46205240
   0.44444444  0.77777778  0.46205240
   0.77777778  0.77777778  0.46205240
   0.88664925  0.22670150  0.53693770
   0.22264067  0.22264067  0.53805186
   0.55471865  0.22264067  0.53805186
   0.89265189  0.55367405  0.53635038
   0.22264067  0.55471865  0.53805186
   0.55367405  0.55367405  0.53635038
   0.88664925  0.88664925  0.53693770
   0.22670150  0.88664925  0.53693770
   0.55367405  0.89265189  0.53635038
   0.00000000  0.00000000  0.60896600
   0.33326806  0.00457507  0.61552713
   0.66215687  0.00457507  0.61552713
   0.00457507  0.33326806  0.61552713
   0.33333333  0.33333333  0.61682351
   0.66215687  0.33326806  0.61552713
   0.00457507  0.66215687  0.61552713
   0.33326806  0.66215687  0.61552713
   0.66666667  0.66666667  0.60878115
   0.00000000  0.00000000  0.68116560
   0.00000000  0.00000000  0.71816712
   0.66666667  0.66666667  0.68119509
   0.66666667  0.66666667  0.71816882
Direct configuration=    16
   0.00000000  0.00000000  0.38615720
   0.33333333  0.00000000  0.38615720
   0.66666667  0.00000000  0.38615720
   0.00000000  0.33333333  0.38615720
   0.33333333  0.33333333  0.38615720
   0.66666667  0.33333333  0.38615720
   0.00000000  0.66666667  0.38615720
   0.33333333  0.66666667  0.38615720
   0.66666667  0.66666667  0.38615720
   0.11111111  0.11111111  0.46205240
   0.44444444  0.11111111  0.46205240
   0.77777778  0.11111111  0.46205240
   0.11111111  0.44444444  0.46205240
   0.44444444  0.44444444  0.46205240
   0.77777778  0.44444444  0.46205240
   0.11111111  0.77777778  0.46205240
   0.44444444  0.77777778  0.46205240
   0.77777778  0.77777778  0.46205240
   0.88611784  0.22776433  0.53676627
   0.22270628  0.22270628  0.53814115
   0.55458744  0.22270628  0.53814115
   0.89358159  0.55320920  0.53606284
   0.22270628  0.55458744  0.53814115
   0.55320920  0.55320920  0.53606284
   0.88611784  0.88611784  0.53676627
   0.22776433  0.88611784  0.53676627
   0.55320920  0.89358159  0.53606284
   0.00000000  1.00000000  0.61004983
   0.33331759  0.00508115  0.61590307
   0.66160126  0.00508115  0.61590307
   0.00508115  0.33331759  0.61590307
   0.33333333  0.33333333  0.61756125
   0.66160126  0.33331759  0.61590307
   0.00508115  0.66160126  0.61590307
   0.33331759  0.66160126  0.61590307
   0.66666667  0.66666667  0.60979058
   0.00000000  1.00000000  0.68260374
   0.00000000  1.00000000  0.71975528
   0.66666667  0.66666667  0.68262431
   0.66666667  0.66666667  0.71976810
Direct configuration=    17
   0.00000000  0.00000000  0.38615720
   0.33333333  0.00000000  0.38615720
   0.66666667  0.00000000  0.38615720
   0.00000000  0.33333333  0.38615720
   0.33333333  0.33333333  0.38615720
   0.66666667  0.33333333  0.38615720
   0.00000000  0.66666667  0.38615720
   0.33333333  0.66666667  0.38615720
   0.66666667  0.66666667  0.38615720
   0.11111111  0.11111111  0.46205240
   0.44444444  0.11111111  0.46205240
   0.77777778  0.11111111  0.46205240
   0.11111111  0.44444444  0.46205240
   0.44444444  0.44444444  0.46205240
   0.77777778  0.44444444  0.46205240
   0.11111111  0.77777778  0.46205240
   0.44444444  0.77777778  0.46205240
   0.77777778  0.77777778  0.46205240
   0.88505501  0.22988999  0.53642341
   0.22283749  0.22283749  0.53831971
   0.55432502  0.22283749  0.53831971
   0.89544100  0.55227950  0.53548777
   0.22283749  0.55432502  0.53831971
   0.55227950  0.55227950  0.53548777
   0.88505501  0.88505501  0.53642341
   0.22988999  0.88505501  0.53642341
   0.55227950  0.89544100  0.53548777
   0.00000000  0.00000000  0.61221748
   0.33341664  0.00609331  0.61665497
   0.66049005  0.00609331  0.61665497
   0.00609331  0.33341664  0.61665497
   0.33333333  0.33333333  0.61903672
   0.66049005  0.33341664  0.61665497
   0.00609331  0.66049005  0.61665497
   0.33341664  0.66049005  0.61665497
   0.66666667  0.66666667  0.61180944
   0.00000000  0.00000000  0.68548002
   0.00000000  0.00000000  0.72293161
   0.66666667  0.66666667  0.68548276
   0.66666667  0.66666667  0.72296666
Direct configuration=    18
   0.00000000  0.00000000  0.38615720
   0.33333333  0.00000000  0.38615720
   0.66666667  0.00000000  0.38615720
   0.00000000  0.33333333  0.38615720
   0.33333333  0.33333333  0.38615720
   0.66666667  0.33333333  0.38615720
   0.00000000  0.66666667  0.38615720
   0.33333333  0.66666667  0.38615720
   0.66666667  0.66666667  0.38615720
   0.11111111  0.11111111  0.46205240
   0.44444444  0.11111111  0.46205240
   0.77777778  0.11111111  0.46205240
   0.11111111  0.44444444  0.46205240
   0.44444444  0.44444444  0.46205240
   0.77777778  0.44444444  0.46205240
   0.11111111  0.77777778  0.46205240
   0.44444444  0.77777778  0.46205240
   0.77777778  0.77777778  0.46205240
   0.88572455  0.22855089  0.53663940
   0.22275483  0.22275483  0.53820722
   0.55449034  0.22275483  0.53820722
   0.89426964  0.55286518  0.53585004
   0.22275483  0.55449034  0.53820722
   0.55286518  0.55286518  0.53585004
   0.88572455  0.88572455  0.53663940
   0.22855089  0.88572455  0.53663940
   0.55286518  0.89426964  0.53585004
   0.00000000  0.00000000  0.61085193
   0.33335424  0.00545568  0.61618130
   0.66119008  0.00545568  0.61618130
   0.00545568  0.33335424  0.61618130
   0.33333333  0.33333333  0.61810722
   0.66119008  0.33335424  0.61618130
   0.00545568  0.66119008  0.61618130
   0.33335424  0.66119008  0.61618130
   0.66666667  0.66666667  0.61053762
   0.00000000  0.00000000  0.68366806
   0.00000000  0.00000000  0.72093063
   0.66666667  0.66666667  0.68368203
   0.66666667  0.66666667  0.72095168
Direct configuration=    19
   0.00000000  0.00000000  0.38615720
   0.33333333  0.00000000  0.38615720
   0.66666667  0.00000000  0.38615720
   0.00000000  0.33333333  0.38615720
   0.33333333  0.33333333  0.38615720
   0.66666667  0.33333333  0.38615720
   0.00000000  0.66666667  0.38615720
   0.33333333  0.66666667  0.38615720
   0.66666667  0.66666667  0.38615720
   0.11111111  0.11111111  0.46205240
   0.44444444  0.11111111  0.46205240
   0.77777778  0.11111111  0.46205240
   0.11111111  0.44444444  0.46205240
   0.44444444  0.44444444  0.46205240
   0.77777778  0.44444444  0.46205240
   0.11111111  0.77777778  0.46205240
   0.44444444  0.77777778  0.46205240
   0.77777778  0.77777778  0.46205240
   0.88576315  0.22847370  0.53671106
   0.22275268  0.22275268  0.53826204
   0.55449464  0.22275268  0.53826204
   0.89419351  0.55290325  0.53589819
   0.22275268  0.55449464  0.53826204
   0.55290325  0.55290325  0.53589819
   0.88576315  0.88576315  0.53671106
   0.22847370  0.88576315  0.53671106
   0.55290325  0.89419351  0.53589819
   0.00000000  0.00000000  0.61122632
   0.33337886  0.00536802  0.61625712
   0.66125312  0.00536802  0.61625712
   0.00536802  0.33337886  0.61625712
   0.33333333  0.33333333  0.61829380
   0.66125312  0.33337886  0.61625712
   0.00536802  0.66125312  0.61625712
   0.33337886  0.66125312  0.61625712
   0.66666667  0.66666667  0.61088994
   0.00000000  0.00000000  0.68407013
   0.00000000  0.00000000  0.72126272
   0.66666667  0.66666667  0.68409464
   0.66666667  0.66666667  0.72127349
Direct configuration=    20
   0.00000000  0.00000000  0.38615720
   0.33333333  0.00000000  0.38615720
   0.66666667  0.00000000  0.38615720
   0.00000000  0.33333333  0.38615720
   0.33333333  0.33333333  0.38615720
   0.66666667  0.33333333  0.38615720
   0.00000000  0.66666667  0.38615720
   0.33333333  0.66666667  0.38615720