       N       E                     dE             d eps       ncg     rms          rms(c)
DAV:   1     0.460506083026E+04    0.46051E+04   -0.17361E+05  2738   0.167E+03
DAV:   2     0.727892488194E+03   -0.38772E+04   -0.37135E+04  2730   0.424E+02
DAV:   3    -0.461342224504E+02   -0.77403E+03   -0.70394E+03  3699   0.224E+02
DAV:   4    -0.217830131947E+03   -0.17170E+03   -0.16213E+03  4324   0.103E+02
DAV:   5    -0.230573196772E+03   -0.12743E+02   -0.12046E+02  4340   0.323E+01    0.527E+01
DAV:   6    -0.236816317527E+03   -0.62431E+01   -0.46794E+02  3403   0.155E+02    0.414E+01
DAV:   7    -0.196303889141E+03    0.40512E+02   -0.26331E+02  3708   0.166E+02    0.216E+01
DAV:   8    -0.191596468718E+03    0.47074E+01   -0.10064E+02  4131   0.953E+01    0.104E+01
DAV:   9    -0.190801462539E+03    0.79501E+00   -0.21109E+01  3724   0.454E+01    0.518E+00
DAV:  10    -0.191658967237E+03   -0.85750E+00   -0.10791E+01  3652   0.315E+01    0.696E+00
DAV:  11    -0.191447233963E+03    0.21173E+00   -0.46284E+00  3276   0.260E+01    0.436E+00
DAV:  12    -0.191257360938E+03    0.18987E+00   -0.12795E+00  3884   0.833E+00    0.187E+00
DAV:  13    -0.191206652165E+03    0.50709E-01   -0.53742E-01  3348   0.905E+00    0.892E-01
DAV:  14    -0.191198249827E+03    0.84023E-02   -0.14555E-01  3636   0.398E+00    0.680E-01
DAV:  15    -0.191195525760E+03    0.27241E-02   -0.68843E-02  3276   0.203E+00    0.485E-01
DAV:  16    -0.191190857908E+03    0.46679E-02   -0.15488E-02  3540   0.124E+00    0.263E-01
DAV:  17    -0.191189141028E+03    0.17169E-02   -0.12930E-02  3476   0.127E+00    0.149E-01
DAV:  18    -0.191189196663E+03   -0.55636E-04   -0.62514E-03  3212   0.738E-01    0.151E-01
DAV:  19    -0.191189010253E+03    0.18641E-03   -0.18196E-03  3196   0.340E-01    0.462E-02
DAV:  20    -0.191189299149E+03   -0.28890E-03   -0.60470E-04  3332   0.226E-01    0.457E-02
DAV:  21    -0.191189934543E+03   -0.63539E-03   -0.18735E-04  3764   0.124E-01    0.399E-02
DAV:  22    -0.191190438123E+03   -0.50358E-03   -0.13311E-04  3740   0.998E-02    0.249E-02
DAV:  23    -0.191190662173E+03   -0.22405E-03   -0.49034E-05  3268   0.770E-02    0.164E-02
DAV:  24    -0.191191043620E+03   -0.38145E-03   -0.46080E-05  3596   0.510E-02    0.968E-03
DAV:  25    -0.191191178191E+03   -0.13457E-03   -0.16338E-05  3460   0.410E-02    0.724E-03
DAV:  26    -0.191191248202E+03   -0.70011E-04   -0.65462E-06  2924   0.225E-02    0.648E-03
DAV:  27    -0.191191366243E+03   -0.11804E-03   -0.70472E-06  2564   0.221E-02    0.508E-03
DAV:  28    -0.191191380558E+03   -0.14315E-04   -0.19602E-06  2124   0.128E-02    0.318E-03
DAV:  29    -0.191191402695E+03   -0.22137E-04   -0.19014E-06  1796   0.860E-03    0.187E-03
DAV:  30    -0.191191422937E+03   -0.20242E-04   -0.95141E-07  1820   0.778E-03    0.190E-03
DAV:  31    -0.191191439642E+03   -0.16705E-04   -0.98245E-07  1820   0.746E-03    0.213E-03
DAV:  32    -0.191191443631E+03   -0.39887E-05   -0.36610E-07  1860   0.447E-03    0.960E-04
DAV:  33    -0.191191446571E+03   -0.29407E-05   -0.14956E-07  1660   0.233E-03    0.644E-04
DAV:  34    -0.191191451412E+03   -0.48407E-05   -0.14020E-07  1650   0.264E-03    0.525E-04
DAV:  35    -0.191191453465E+03   -0.20534E-05   -0.75515E-08  1732   0.217E-03    0.396E-04
DAV:  36    -0.191191454095E+03   -0.62975E-06   -0.40256E-08  1620   0.120E-03
   1 F= -.19119145E+03 E0= -.19115187E+03  d E =-.191191E+03
       N       E                     dE             d eps       ncg     rms          rms(c)
DAV:   1    -0.186295286946E+03    0.48962E+01   -0.46232E+02  2770   0.388E+01    0.616E+00
DAV:   2    -0.189187420131E+03   -0.28921E+01   -0.34606E+01  4827   0.286E+01    0.749E+00
DAV:   3    -0.187944400517E+03    0.12430E+01   -0.83145E+00  4428   0.413E+01    0.510E+00
DAV:   4    -0.187769531634E+03    0.17487E+00   -0.27337E+00  4228   0.222E+01    0.370E+00
DAV:   5    -0.187683892327E+03    0.85639E-01   -0.68305E-01  4380   0.143E+01    0.280E+00
DAV:   6    -0.187630181941E+03    0.53710E-01   -0.51407E-01  3786   0.781E+00    0.692E-01
DAV:   7    -0.187650979839E+03   -0.20798E-01   -0.23652E-01  3596   0.344E+00    0.577E-01
DAV:   8    -0.187647512056E+03    0.34678E-02   -0.43605E-02  3236   0.265E+00    0.319E-01
DAV:   9    -0.187649419378E+03   -0.19073E-02   -0.14151E-02  3484   0.110E+00    0.232E-01
DAV:  10    -0.187652688730E+03   -0.32694E-02   -0.89038E-03  3331   0.868E-01    0.178E-01
DAV:  11    -0.187652466555E+03    0.22217E-03   -0.20309E-03  3628   0.598E-01    0.110E-01
DAV:  12    -0.187652128656E+03    0.33790E-03   -0.79248E-04  4164   0.259E-01    0.435E-02
DAV:  13    -0.187652514900E+03   -0.38624E-03   -0.39090E-04  4043   0.945E-02    0.234E-02
DAV:  14    -0.187653129118E+03   -0.61422E-03   -0.17194E-04  3625   0.114E-01    0.220E-02
DAV:  15    -0.187653278161E+03   -0.14904E-03   -0.54227E-05  4060   0.716E-02    0.195E-02
DAV:  16    -0.187653521906E+03   -0.24374E-03   -0.40477E-05  3867   0.368E-02    0.110E-02
DAV:  17    -0.187653636448E+03   -0.11454E-03   -0.16028E-05  3916   0.397E-02    0.740E-03
DAV:  18    -0.187653812755E+03   -0.17631E-03   -0.23264E-05  3419   0.321E-02    0.296E-03
DAV:  19    -0.187653880238E+03   -0.67483E-04   -0.98594E-06  3346   0.187E-02    0.289E-03
DAV:  20    -0.187653899925E+03   -0.19688E-04   -0.14783E-06  2035   0.135E-02    0.201E-03
DAV:  21    -0.187653914187E+03   -0.14262E-04   -0.75662E-07  1690   0.706E-03    0.150E-03
DAV:  22    -0.187653926526E+03   -0.12339E-04   -0.72514E-07  1730   0.598E-03    0.117E-03
DAV:  23    -0.187653930295E+03   -0.37690E-05   -0.34222E-07  1700   0.503E-03    0.670E-04
DAV:  24    -0.187653935421E+03   -0.51268E-05   -0.26061E-07  1602   0.341E-03    0.612E-04
DAV:  25    -0.187653938988E+03   -0.35663E-05   -0.20792E-07  1634   0.235E-03    0.494E-04
DAV:  26    -0.187653939670E+03   -0.68243E-06   -0.82110E-08  1564   0.210E-03
   2 F= -.18765394E+03 E0= -.18759101E+03  d E =0.353751E+01
       N       E                     dE             d eps       ncg     rms          rms(c)
DAV:   1    -0.189575357789E+03   -0.19214E+01   -0.32020E+02  2732   0.358E+01    0.593E+00
DAV:   2    -0.192176886660E+03   -0.26015E+01   -0.27766E+01  4475   0.194E+01    0.594E+00
DAV:   3    -0.191910085910E+03    0.26680E+00   -0.94038E+00  4596   0.317E+01    0.397E+00
DAV:   4    -0.191467457705E+03    0.44263E+00   -0.12099E+00  3556   0.264E+01    0.251E+00
DAV:   5    -0.191367929901E+03    0.99528E-01   -0.41200E-01  3548   0.719E+00    0.145E+00
DAV:   6    -0.191341010781E+03    0.26919E-01   -0.28966E-01  3404   0.366E+00    0.533E-01
DAV:   7    -0.191342957443E+03   -0.19467E-02   -0.70074E-02  3332   0.316E+00    0.338E-01
DAV:   8    -0.191342182814E+03    0.77463E-03   -0.10802E-02  3548   0.156E+00    0.178E-01
DAV:   9    -0.191342494965E+03   -0.31215E-03   -0.49851E-03  4348   0.640E-01    0.846E-02
DAV:  10    -0.191342878975E+03   -0.38401E-03   -0.32235E-03  3108   0.619E-01    0.601E-02
DAV:  11    -0.191343104410E+03   -0.22544E-03   -0.78854E-04  3180   0.322E-01    0.440E-02
DAV:  12    -0.191343467478E+03   -0.36307E-03   -0.28170E-04  3291   0.174E-01    0.240E-02
DAV:  13    -0.191343717036E+03   -0.24956E-03   -0.11917E-04  3260   0.138E-01    0.159E-02
DAV:  14    -0.191343965670E+03   -0.24863E-03   -0.40082E-05  3292   0.602E-02    0.806E-03
DAV:  15    -0.191344263560E+03   -0.29789E-03   -0.28285E-05  3268   0.449E-02    0.850E-03
DAV:  16    -0.191344434989E+03   -0.17143E-03   -0.14770E-05  3252   0.448E-02    0.467E-03
DAV:  17    -0.191344640756E+03   -0.20577E-03   -0.14504E-05  3300   0.214E-02    0.369E-03
DAV:  18    -0.191344729352E+03   -0.88596E-04   -0.43249E-06  2348   0.196E-02    0.306E-03
DAV:  19    -0.191344771190E+03   -0.41837E-04   -0.24955E-06  2164   0.159E-02    0.169E-03
DAV:  20    -0.191344810480E+03   -0.39291E-04   -0.14670E-06  2004   0.712E-03    0.128E-03
DAV:  21    -0.191344824092E+03   -0.13611E-04   -0.46456E-07  1796   0.638E-03    0.109E-03
DAV:  22    -0.191344836670E+03   -0.12578E-04   -0.32269E-07  1716   0.483E-03    0.637E-04
DAV:  23    -0.191344845924E+03   -0.92536E-05   -0.41692E-07  1763   0.354E-03    0.630E-04
DAV:  24    -0.191344849068E+03   -0.31442E-05   -0.15375E-07  1804   0.260E-03    0.521E-04
DAV:  25    -0.191344851089E+03   -0.20214E-05   -0.90497E-08  1658   0.201E-03    0.323E-04
DAV:  26    -0.191344852541E+03   -0.14520E-05   -0.50165E-08  1671   0.113E-03    0.180E-04
DAV:  27    -0.191344852980E+03   -0.43836E-06   -0.24874E-08  1542   0.104E-03
   3 F= -.19134485E+03 E0= -.19130104E+03  d E =-.153399E+00
       N       E                     dE             d eps       ncg     rms          rms(c)
DAV:   1    -0.191473362194E+03   -0.12851E+00   -0.14253E+02  2733   0.247E+01    0.194E+00
DAV:   2    -0.191915356076E+03   -0.44199E+00   -0.46939E+00  4148   0.875E+00    0.170E+00
DAV:   3    -0.191884830418E+03    0.30526E-01   -0.23257E-01  3204   0.542E+00    0.964E-01
DAV:   4    -0.191882854087E+03    0.19763E-02   -0.36971E-02  3476   0.242E+00    0.741E-01
DAV:   5    -0.191892554409E+03   -0.97003E-02   -0.63478E-02  3292   0.477E+00    0.844E-01
DAV:   6    -0.191879956749E+03    0.12598E-01   -0.50783E-02  4028   0.351E+00    0.300E-01
DAV:   7    -0.191878815904E+03    0.11408E-02   -0.14171E-02  4876   0.143E+00    0.910E-02
DAV:   8    -0.191878982926E+03   -0.16702E-03   -0.40217E-03  3500   0.512E-01    0.652E-02
DAV:   9    -0.191878997492E+03   -0.14566E-04   -0.81842E-04  3228   0.337E-01    0.508E-02
DAV:  10    -0.191878982362E+03    0.15129E-04   -0.25562E-04  3276   0.208E-01    0.182E-02
DAV:  11    -0.191878992185E+03   -0.98230E-05   -0.55074E-05  4348   0.738E-02    0.897E-03
DAV:  12    -0.191878997592E+03   -0.54069E-05   -0.19244E-05  3228   0.603E-02    0.591E-03
DAV:  13    -0.191879002778E+03   -0.51855E-05   -0.78763E-06  2764   0.319E-02    0.226E-03
DAV:  14    -0.191879007436E+03   -0.46581E-05   -0.16150E-06  1796   0.140E-02    0.200E-03
DAV:  15    -0.191879010145E+03   -0.27087E-05   -0.10033E-06  1644   0.108E-02    0.116E-03
DAV:  16    -0.191879012740E+03   -0.25955E-05   -0.43265E-07  1692   0.575E-03    0.705E-04
DAV:  17    -0.191879015018E+03   -0.22783E-05   -0.24540E-07  1620   0.345E-03    0.694E-04
DAV:  18    -0.191879018393E+03   -0.33749E-05   -0.27726E-07  1684   0.372E-03    0.408E-04
DAV:  19    -0.191879019774E+03   -0.13803E-05   -0.15451E-07  1612   0.173E-03    0.320E-04
DAV:  20    -0.191879020675E+03   -0.90123E-06   -0.94744E-08  1580   0.194E-03
   4 F= -.19187902E+03 E0= -.19182709E+03  d E =-.534168E+00
       N       E                     dE             d eps       ncg     rms          rms(c)
DAV:   1    -0.189181389557E+03    0.26976E+01   -0.13678E+03  3287   0.866E+01    0.896E+00
DAV:   2    -0.193024265393E+03   -0.38429E+01   -0.41806E+01  4124   0.302E+01    0.559E+00
DAV:   3    -0.192905744814E+03    0.11852E+00   -0.31625E+00  3218   0.280E+01    0.417E+00
DAV:   4    -0.192833748462E+03    0.71996E-01   -0.12752E+00  3396   0.181E+01    0.319E+00
DAV:   5    -0.192825997490E+03    0.77510E-02   -0.74183E-01  4436   0.108E+01    0.248E+00
DAV:   6    -0.192760757323E+03    0.65240E-01   -0.32279E-01  4299   0.589E+00    0.805E-01
DAV:   7    -0.192766691435E+03   -0.59341E-02   -0.12987E-01  3396   0.432E+00    0.499E-01
DAV:   8    -0.192765603572E+03    0.10879E-02   -0.41581E-02  3308   0.257E+00    0.133E-01
DAV:   9    -0.192766866212E+03   -0.12626E-02   -0.16103E-02  3156   0.778E-01    0.144E-01
DAV:  10    -0.192766910049E+03   -0.43837E-04   -0.28356E-03  3172   0.611E-01    0.101E-01
DAV:  11    -0.192766871599E+03    0.38450E-04   -0.86049E-04  3564   0.365E-01    0.364E-02
DAV:  12    -0.192766917441E+03   -0.45842E-04   -0.25031E-04  4324   0.154E-01    0.316E-02
DAV:  13    -0.192766945236E+03   -0.27795E-04   -0.11703E-04  3372   0.165E-01    0.194E-02
DAV:  14    -0.192766964523E+03   -0.19287E-04   -0.39849E-05  3252   0.882E-02    0.599E-03
DAV:  15    -0.192766979734E+03   -0.15211E-04   -0.11937E-05  3732   0.367E-02    0.500E-03
DAV:  16    -0.192766996207E+03   -0.16473E-04   -0.32627E-06  2396   0.238E-02    0.211E-03
DAV:  17    -0.192767009266E+03   -0.13059E-04   -0.14353E-06  1788   0.825E-03    0.150E-03
DAV:  18    -0.192767021656E+03   -0.12390E-04   -0.86285E-07  1756   0.849E-03    0.131E-03
DAV:  19    -0.192767028566E+03   -0.69104E-05   -0.43023E-07  1724   0.609E-03    0.676E-04
DAV:  20    -0.192767040082E+03   -0.11516E-04   -0.78820E-07  1730   0.285E-03    0.633E-04
DAV:  21    -0.192767044750E+03   -0.46680E-05   -0.25063E-07  1748   0.382E-03    0.580E-04
DAV:  22    -0.192767048797E+03   -0.40465E-05   -0.22863E-07  1642   0.272E-03    0.290E-04
DAV:  23    -0.192767051276E+03   -0.24799E-05   -0.21105E-07  1636   0.183E-03    0.344E-04
DAV:  24    -0.192767051760E+03   -0.48382E-06   -0.85195E-08  1644   0.162E-03
   5 F= -.19276705E+03 E0= -.19270921E+03  d E =-.142220E+01
       N       E                     dE             d eps       ncg     rms          rms(c)
DAV:   1    -0.188740443050E+03    0.40266E+01   -0.31500E+02  2730   0.334E+01    0.595E+00
DAV:   2    -0.190968298713E+03   -0.22279E+01   -0.24599E+01  4995   0.268E+01    0.575E+00
DAV:   3    -0.190421783410E+03    0.54652E+00   -0.81359E+00  4780   0.342E+01    0.408E+00
DAV:   4    -0.189982563746E+03    0.43922E+00   -0.19067E+00  3556   0.243E+01    0.226E+00
DAV:   5    -0.189915875065E+03    0.66689E-01   -0.49714E-01  3644   0.736E+00    0.115E+00
DAV:   6    -0.189911363833E+03    0.45112E-02   -0.20042E-01  3412   0.393E+00    0.501E-01
DAV:   7    -0.189913419570E+03   -0.20557E-02   -0.74615E-02  3308   0.377E+00    0.390E-01
DAV:   8    -0.189912046948E+03    0.13726E-02   -0.18907E-02  3348   0.190E+00    0.140E-01
DAV:   9    -0.189912130423E+03   -0.83475E-04   -0.63842E-03  3612   0.622E-01    0.759E-02
DAV:  10    -0.189912477796E+03   -0.34737E-03   -0.21925E-03  3236   0.579E-01    0.807E-02
DAV:  11    -0.189912741118E+03   -0.26332E-03   -0.91707E-04  3148   0.367E-01    0.450E-02
DAV:  12    -0.189913079032E+03   -0.33791E-03   -0.25044E-04  4372   0.179E-01    0.246E-02
DAV:  13    -0.189913435291E+03   -0.35626E-03   -0.11365E-04  4107   0.135E-01    0.209E-02
DAV:  14    -0.189913606281E+03   -0.17099E-03   -0.49753E-05  3300   0.655E-02    0.130E-02
DAV:  15    -0.189914005013E+03   -0.39873E-03   -0.54825E-05  3098   0.754E-02    0.113E-02
DAV:  16    -0.189914197967E+03   -0.19295E-03   -0.19979E-05  3811   0.455E-02    0.903E-03
DAV:  17    -0.189914349104E+03   -0.15114E-03   -0.10047E-05  3283   0.352E-02    0.371E-03
DAV:  18    -0.189914479938E+03   -0.13083E-03   -0.69847E-06  2851   0.191E-02    0.368E-03
DAV:  19    -0.189914526904E+03   -0.46966E-04   -0.26298E-06  2228   0.177E-02    0.273E-03
DAV:  20    -0.189914556728E+03   -0.29823E-04   -0.13377E-06  1860   0.964E-03    0.118E-03
DAV:  21    -0.189914584501E+03   -0.27773E-04   -0.79695E-07  1828   0.559E-03    0.110E-03
DAV:  22    -0.189914601175E+03   -0.16673E-04   -0.43129E-07  1772   0.647E-03    0.802E-04
DAV:  23    -0.189914615947E+03   -0.14772E-04   -0.45575E-07  1762   0.368E-03    0.439E-04
DAV:  24    -0.189914621332E+03   -0.53844E-05   -0.21962E-07  1836   0.301E-03    0.576E-04
DAV:  25    -0.189914624517E+03   -0.31854E-05   -0.11924E-07  1612   0.257E-03    0.479E-04
DAV:  26    -0.189914627322E+03   -0.28046E-05   -0.93695E-08  1698   0.191E-03    0.161E-04
DAV:  27    -0.189914628146E+03   -0.82474E-06   -0.41215E-08  1697   0.103E-03
   6 F= -.18991463E+03 E0= -.18985027E+03  d E =0.285242E+01
       N       E                     dE             d eps       ncg     rms          rms(c)
DAV:   1    -0.192345352440E+03   -0.24307E+01   -0.22438E+02  2730   0.265E+01    0.422E+00
DAV:   2    -0.193263030212E+03   -0.91768E+00   -0.12926E+01  4890   0.164E+01    0.421E+00
DAV:   3    -0.193110073972E+03    0.15296E+00   -0.44994E+00  4196   0.271E+01    0.363E+00
DAV:   4    -0.192874851053E+03    0.23522E+00   -0.77677E-01  3524   0.150E+01    0.221E+00
DAV:   5    -0.192862432287E+03    0.12419E-01   -0.24412E-01  3908   0.729E+00    0.149E+00
DAV:   6    -0.192844461077E+03    0.17971E-01   -0.19576E-01  3172   0.773E+00    0.593E-01
DAV:   7    -0.192843683153E+03    0.77792E-03   -0.62353E-02  3724   0.326E+00    0.262E-01
DAV:   8    -0.192844842507E+03   -0.11594E-02   -0.18446E-02  3396   0.125E+00    0.168E-01
DAV:   9    -0.192846310769E+03   -0.14683E-02   -0.73878E-03  3264   0.801E-01    0.951E-02
DAV:  10    -0.192847209294E+03   -0.89853E-03   -0.19950E-03  3100   0.554E-01    0.766E-02
DAV:  11    -0.192847500709E+03   -0.29141E-03   -0.62104E-04  3260   0.335E-01    0.244E-02
DAV:  12    -0.192847903660E+03   -0.40295E-03   -0.21040E-04  3600   0.133E-01    0.233E-02
DAV:  13    -0.192848138820E+03   -0.23516E-03   -0.87349E-05  3188   0.122E-01    0.145E-02
DAV:  14    -0.192848655139E+03   -0.51632E-03   -0.12100E-04  3834   0.739E-02    0.124E-02
DAV:  15    -0.192848718790E+03   -0.63651E-04   -0.12382E-05  3692   0.420E-02    0.809E-03
DAV:  16    -0.192848813402E+03   -0.94612E-04   -0.10705E-05  3064   0.277E-02    0.519E-03
DAV:  17    -0.192848988525E+03   -0.17512E-03   -0.30579E-05  3586   0.338E-02    0.518E-03
DAV:  18    -0.192849007567E+03   -0.19042E-04   -0.24636E-06  2228   0.186E-02    0.312E-03
DAV:  19    -0.192849043010E+03   -0.35443E-04   -0.26682E-06  2068   0.158E-02    0.191E-03
DAV:  20    -0.192849062057E+03   -0.19047E-04   -0.19259E-06  2132   0.973E-03    0.117E-03
DAV:  21    -0.192849067619E+03   -0.55617E-05   -0.46735E-07  1810   0.592E-03    0.104E-03
DAV:  22    -0.192849074576E+03   -0.69571E-05   -0.41917E-07  1630   0.435E-03    0.818E-04
DAV:  23    -0.192849077274E+03   -0.26986E-05   -0.17609E-07  1650   0.312E-03    0.425E-04
DAV:  24    -0.192849079133E+03   -0.18589E-05   -0.12291E-07  1586   0.262E-03    0.421E-04
DAV:  25    -0.192849080624E+03   -0.14911E-05   -0.93723E-08  1655   0.218E-03    0.260E-04
DAV:  26    -0.192849081574E+03   -0.94960E-06   -0.63922E-08  1580   0.185E-03
   7 F= -.19284908E+03 E0= -.19278966E+03  d E =-.820298E-01
       N       E                     dE             d eps       ncg     rms          rms(c)
DAV:   1    -0.192897560331E+03   -0.48480E-01   -0.82430E+01  2730   0.184E+01    0.149E+00
DAV:   2    -0.193108991660E+03   -0.21143E+00   -0.23472E+00  4179   0.706E+00    0.115E+00
DAV:   3    -0.193105007424E+03    0.39842E-02   -0.15992E-01  3107   0.681E+00    0.853E-01
DAV:   4    -0.193101172670E+03    0.38348E-02   -0.52830E-02  3286   0.406E+00    0.577E-01
DAV:   5    -0.193104401907E+03   -0.32292E-02   -0.58550E-02  3415   0.394E+00    0.557E-01
DAV:   6    -0.193097047246E+03    0.73547E-02   -0.29098E-02  4847   0.251E+00    0.990E-02
DAV:   7    -0.193097635374E+03   -0.58813E-03   -0.74220E-03  3843   0.690E-01    0.836E-02
DAV:   8    -0.193097682000E+03   -0.46626E-04   -0.22396E-03  3124   0.521E-01    0.473E-02
DAV:   9    -0.193097668433E+03    0.13568E-04   -0.35943E-04  3314   0.191E-01    0.237E-02
DAV:  10    -0.193097676247E+03   -0.78146E-05   -0.12140E-04  3330   0.783E-02    0.166E-02
DAV:  11    -0.193097678557E+03   -0.23101E-05   -0.46529E-05  3187   0.922E-02    0.972E-03
DAV:  12    -0.193097680982E+03   -0.24249E-05   -0.99621E-06  3204   0.464E-02    0.475E-03
DAV:  13    -0.193097685647E+03   -0.46649E-05   -0.43300E-06  2474   0.241E-02    0.253E-03
DAV:  14    -0.193097688052E+03   -0.24046E-05   -0.13473E-06  1684   0.152E-02    0.193E-03
DAV:  15    -0.193097691598E+03   -0.35469E-05   -0.86469E-07  1672   0.985E-03    0.111E-03
DAV:  16    -0.193097694083E+03   -0.24848E-05   -0.58722E-07  1731   0.436E-03    0.651E-04
DAV:  17    -0.193097696859E+03   -0.27760E-05   -0.38157E-07  1647   0.458E-03    0.772E-04
DAV:  18    -0.193097698539E+03   -0.16795E-05   -0.23340E-07  1650   0.390E-03    0.394E-04
DAV:  19    -0.193097701054E+03   -0.25151E-05   -0.25113E-07  1655   0.259E-03    0.462E-04
DAV:  20    -0.193097701867E+03   -0.81316E-06   -0.12955E-07  1665   0.242E-03
   8 F= -.19309770E+03 E0= -.19303755E+03  d E =-.248620E+00
       N       E                     dE             d eps       ncg     rms          rms(c)
DAV:   1    -0.191275975782E+03    0.18217E+01   -0.75339E+02  2923   0.602E+01    0.702E+00
DAV:   2    -0.193564465895E+03   -0.22885E+01   -0.24838E+01  4163   0.249E+01    0.412E+00
DAV:   3    -0.193519986217E+03    0.44480E-01   -0.21246E+00  3188   0.249E+01    0.324E+00
DAV:   4    -0.193454037934E+03    0.65948E-01   -0.44823E-01  3268   0.138E+01    0.224E+00
DAV:   5    -0.193512890135E+03   -0.58852E-01   -0.44386E-01  3364   0.124E+01    0.220E+00
DAV:   6    -0.193432028545E+03    0.80862E-01   -0.34683E-01  4668   0.950E+00    0.520E-01
DAV:   7    -0.193436673498E+03   -0.46450E-02   -0.97060E-02  3980   0.251E+00    0.324E-01
DAV:   8    -0.193437575652E+03   -0.90215E-03   -0.35332E-02  3187   0.193E+00    0.183E-01
DAV:   9    -0.193437342351E+03    0.23330E-03   -0.55552E-03  3316   0.835E-01    0.100E-01
DAV:  10    -0.193437344486E+03   -0.21351E-05   -0.18781E-03  3412   0.325E-01    0.582E-02
DAV:  11    -0.193437349076E+03   -0.45894E-05   -0.52756E-04  3396   0.286E-01    0.384E-02
DAV:  12    -0.193437348461E+03    0.61467E-06   -0.17549E-04  3348   0.212E-01    0.188E-02
DAV:  13    -0.193437368596E+03   -0.20136E-04   -0.75978E-05  4180   0.939E-02    0.919E-03
DAV:  14    -0.193437380542E+03   -0.11945E-04   -0.20361E-05  3316   0.546E-02    0.782E-03
DAV:  15    -0.193437394692E+03   -0.14150E-04   -0.10026E-05  2956   0.359E-02    0.352E-03
DAV:  16    -0.193437407434E+03   -0.12742E-04   -0.15670E-06  1884   0.157E-02    0.277E-03
DAV:  17    -0.193437418020E+03   -0.10586E-04   -0.17596E-06  1844   0.130E-02    0.209E-03
DAV:  18    -0.193437430421E+03   -0.12400E-04   -0.14579E-06  1835   0.101E-02    0.129E-03
DAV:  19    -0.193437439096E+03   -0.86756E-05   -0.75340E-07  1731   0.508E-03    0.111E-03
DAV:  20    -0.193437445649E+03   -0.65521E-05   -0.61037E-07  1675   0.631E-03    0.853E-04
DAV:  21    -0.193437450299E+03   -0.46508E-05   -0.51910E-07  1730   0.344E-03    0.428E-04
DAV:  22    -0.193437452538E+03   -0.22390E-05   -0.25556E-07  1707   0.261E-03    0.424E-04
DAV:  23    -0.193437453910E+03   -0.13720E-05   -0.12992E-07  1609   0.230E-03    0.292E-04
DAV:  24    -0.193437455102E+03   -0.11915E-05   -0.85554E-08  1666   0.147E-03    0.194E-04
DAV:  25    -0.193437455793E+03   -0.69110E-06   -0.48987E-08  1593   0.122E-03
   9 F= -.19343746E+03 E0= -.19338295E+03  d E =-.588374E+00
       N       E                     dE             d eps       ncg     rms          rms(c)
DAV:   1    -0.192205671274E+03    0.12318E+01   -0.15445E+02  2754   0.224E+01    0.314E+00
DAV:   2    -0.192802412005E+03   -0.59674E+00   -0.76692E+00  4219   0.100E+01    0.247E+00
DAV:   3    -0.192794200221E+03    0.82118E-02   -0.77184E-01  3452   0.125E+01    0.200E+00
DAV:   4    -0.192761973721E+03    0.32227E-01   -0.29300E-01  3412   0.993E+00    0.154E+00
DAV:   5    -0.192746254300E+03    0.15719E-01   -0.13106E-01  3652   0.777E+00    0.106E+00
DAV:   6    -0.192736456672E+03    0.97976E-02   -0.10097E-01  4106   0.559E+00    0.282E-01
DAV:   7    -0.192737655214E+03   -0.11985E-02   -0.33009E-02  3827   0.181E+00    0.183E-01
DAV:   8    -0.192738202864E+03   -0.54765E-03   -0.81059E-03  3196   0.831E-01    0.111E-01
DAV:   9    -0.192738995083E+03   -0.79222E-03   -0.30352E-03  3194   0.522E-01    0.805E-02
DAV:  10    -0.192739245781E+03   -0.25070E-03   -0.94347E-04  3203   0.380E-01    0.250E-02
DAV:  11    -0.192739361359E+03   -0.11558E-03   -0.23438E-04  3755   0.134E-01    0.198E-02
DAV:  12    -0.192739441613E+03   -0.80254E-04   -0.61040E-05  3267   0.983E-02    0.125E-02
DAV:  13    -0.192739556194E+03   -0.11458E-03   -0.22451E-05  4179   0.492E-02    0.644E-03
DAV:  14    -0.192739746239E+03   -0.19005E-03   -0.31572E-05  3291   0.260E-02    0.577E-03
DAV:  15    -0.192739774783E+03   -0.28543E-04   -0.44779E-06  2980   0.238E-02    0.435E-03
DAV:  16    -0.192739817507E+03   -0.42725E-04   -0.35911E-06  2260   0.125E-02    0.235E-03
DAV:  17    -0.192739881066E+03   -0.63558E-04   -0.67889E-06  2748   0.108E-02    0.223E-03
DAV:  18    -0.192739901444E+03   -0.20378E-04   -0.15738E-06  2108   0.115E-02    0.158E-03
DAV:  19    -0.192739912756E+03   -0.11312E-04   -0.91610E-07  1804   0.653E-03    0.874E-04
DAV:  20    -0.192739921661E+03   -0.89045E-05   -0.82353E-07  1746   0.426E-03    0.781E-04
DAV:  21    -0.192739925162E+03   -0.35014E-05   -0.34230E-07  1772   0.483E-03    0.599E-04
DAV:  22    -0.192739927658E+03   -0.24960E-05   -0.20343E-07  1610   0.275E-03    0.315E-04
DAV:  23    -0.192739929686E+03   -0.20282E-05   -0.12338E-07  1612   0.204E-03    0.381E-04
DAV:  24    -0.192739930553E+03   -0.86712E-06   -0.63725E-08  1564   0.184E-03
  10 F= -.19273993E+03 E0= -.19268605E+03  d E =0.697525E+00
       N       E                     dE             d eps       ncg     rms          rms(c)
DAV:   1    -0.193051581152E+03   -0.31165E+00   -0.10229E+02  2730   0.192E+01    0.292E+00
DAV:   2    -0.193573222276E+03   -0.52164E+00   -0.57914E+00  4524   0.104E+01    0.215E+00
DAV:   3    -0.193559613917E+03    0.13608E-01   -0.73882E-01  3660   0.137E+01    0.165E+00
DAV:   4    -0.193504206142E+03    0.55408E-01   -0.36315E-01  3420   0.118E+01    0.122E+00
DAV:   5    -0.193478273353E+03    0.25933E-01   -0.95223E-02  3428   0.597E+00    0.641E-01
DAV:   6    -0.193477027924E+03    0.12454E-02   -0.63229E-02  4004   0.317E+00    0.236E-01
DAV:   7    -0.193478266292E+03   -0.12384E-02   -0.19992E-02  3492   0.134E+00    0.163E-01
DAV:   8    -0.193478309305E+03   -0.43013E-04   -0.41137E-03  3276   0.694E-01    0.933E-02
DAV:   9    -0.193478545676E+03   -0.23637E-03   -0.17489E-03  3348   0.487E-01    0.599E-02
DAV:  10    -0.193478617648E+03   -0.71973E-04   -0.60472E-04  3220   0.342E-01    0.217E-02
DAV:  11    -0.193478692685E+03   -0.75036E-04   -0.15729E-04  3364   0.986E-02    0.158E-02
DAV:  12    -0.193478753181E+03   -0.60497E-04   -0.40925E-05  3276   0.807E-02    0.112E-02
DAV:  13    -0.193478846343E+03   -0.93161E-04   -0.17217E-05  3700   0.497E-02    0.445E-03
DAV:  14    -0.193478924044E+03   -0.77702E-04   -0.79034E-06  3060   0.218E-02    0.331E-03
DAV:  15    -0.193478965212E+03   -0.41167E-04   -0.33134E-06  2468   0.242E-02    0.312E-03
DAV:  16    -0.193479032457E+03   -0.67245E-04   -0.38172E-06  2172   0.111E-02    0.145E-03
DAV:  17    -0.193479069683E+03   -0.37227E-04   -0.19855E-06  2012   0.800E-03    0.139E-03
DAV:  18    -0.193479083719E+03   -0.14036E-04   -0.92870E-07  1844   0.917E-03    0.116E-03
DAV:  19    -0.193479096983E+03   -0.13264E-04   -0.87146E-07  1780   0.588E-03    0.688E-04
DAV:  20    -0.193479102370E+03   -0.53874E-05   -0.36779E-07  1820   0.395E-03    0.662E-04
DAV:  21    -0.193479107157E+03   -0.47868E-05   -0.25040E-07  1676   0.349E-03    0.430E-04
DAV:  22    -0.193479110041E+03   -0.28838E-05   -0.14522E-07  1698   0.202E-03    0.320E-04
DAV:  23    -0.193479111647E+03   -0.16064E-05   -0.68735E-08  1625   0.160E-03    0.253E-04
DAV:  24    -0.193479113025E+03   -0.13777E-05   -0.39646E-08  1617   0.132E-03    0.168E-04
DAV:  25    -0.193479114484E+03   -0.14589E-05   -0.33817E-08  1668   0.972E-04    0.156E-04
DAV:  26    -0.193479114751E+03   -0.26682E-06   -0.16684E-08  1594   0.850E-04
  11 F= -.19347911E+03 E0= -.19342453E+03  d E =-.416590E-01
       N       E                     dE             d eps       ncg     rms          rms(c)
DAV:   1    -0.193501385082E+03   -0.22271E-01   -0.84974E+01  2730   0.170E+01    0.189E+00
DAV:   2    -0.193756926176E+03   -0.25554E+00   -0.29014E+00  4049   0.468E+00    0.139E+00
DAV:   3    -0.193748312996E+03    0.86132E-02   -0.21371E-01  4316   0.413E+00    0.923E-01
DAV:   4    -0.193752071053E+03   -0.37581E-02   -0.14996E-01  3292   0.678E+00    0.914E-01
DAV:   5    -0.193738103544E+03    0.13968E-01   -0.40050E-02  3388   0.443E+00    0.398E-01
DAV:   6    -0.193738836358E+03   -0.73281E-03   -0.16826E-02  4412   0.979E-01    0.128E-01
DAV:   7    -0.193739178623E+03   -0.34226E-03   -0.63880E-03  3315   0.109E+00    0.129E-01
DAV:   8    -0.193738981442E+03    0.19718E-03   -0.11443E-03  3212   0.559E-01    0.441E-02
DAV:   9    -0.193738997503E+03   -0.16061E-04   -0.45405E-04  4124   0.151E-01    0.267E-02
DAV:  10    -0.193739004939E+03   -0.74364E-05   -0.13426E-04  3180   0.163E-01    0.184E-02
DAV:  11    -0.193739014833E+03   -0.98936E-05   -0.46287E-05  3236   0.728E-02    0.770E-03
DAV:  12    -0.193739024342E+03   -0.95098E-05   -0.16864E-05  3172   0.496E-02    0.524E-03
DAV:  13    -0.193739028496E+03   -0.41533E-05   -0.42810E-06  2660   0.285E-02    0.282E-03
DAV:  14    -0.193739037889E+03   -0.93929E-05   -0.22220E-06  1852   0.158E-02    0.223E-03
DAV:  15    -0.193739042167E+03   -0.42787E-05   -0.79769E-07  1804   0.106E-02    0.140E-03
DAV:  16    -0.193739048579E+03   -0.64115E-05   -0.82061E-07  1739   0.761E-03    0.109E-03
DAV:  17    -0.193739054522E+03   -0.59436E-05   -0.67566E-07  1777   0.547E-03    0.859E-04
DAV:  18    -0.193739058439E+03   -0.39165E-05   -0.44107E-07  1676   0.459E-03    0.740E-04
DAV:  19    -0.193739060500E+03   -0.20607E-05   -0.27002E-07  1728   0.360E-03    0.396E-04
DAV:  20    -0.193739062428E+03   -0.19280E-05   -0.24337E-07  1682   0.212E-03    0.442E-04
DAV:  21    -0.193739062849E+03   -0.42183E-06   -0.98383E-08  1679   0.194E-03
  12 F= -.19373906E+03 E0= -.19368864E+03  d E =-.259948E+00
       N       E                     dE             d eps       ncg     rms          rms(c)
DAV:   1    -0.192546051937E+03    0.11930E+01   -0.40717E+02  2746   0.382E+01    0.556E+00
DAV:   2    -0.194117248448E+03   -0.15712E+01   -0.17353E+01  4161   0.125E+01    0.355E+00
DAV:   3    -0.194125984623E+03   -0.87362E-02   -0.24604E+00  4284   0.175E+01    0.272E+00
DAV:   4    -0.194001178009E+03    0.12481E+00   -0.10076E+00  3372   0.175E+01    0.216E+00
DAV:   5    -0.193973411735E+03    0.27766E-01   -0.15933E-01  3612   0.751E+00    0.140E+00
DAV:   6    -0.193969828867E+03    0.35829E-02   -0.11365E-01  4172   0.400E+00    0.484E-01
DAV:   7    -0.193970021441E+03   -0.19257E-03   -0.53289E-02  3500   0.310E+00    0.261E-01
DAV:   8    -0.193969529895E+03    0.49155E-03   -0.10159E-02  3412   0.121E+00    0.114E-01
DAV:   9    -0.193969632161E+03   -0.10227E-03   -0.37475E-03  3316   0.671E-01    0.958E-02
DAV:  10    -0.193969631430E+03    0.73068E-06   -0.17254E-03  3116   0.546E-01    0.481E-02
DAV:  11    -0.193969643192E+03   -0.11762E-04   -0.41839E-04  3636   0.240E-01    0.291E-02
DAV:  12    -0.193969661802E+03   -0.18610E-04   -0.15761E-04  3532   0.149E-01    0.185E-02
DAV:  13    -0.193969682552E+03   -0.20750E-04   -0.74842E-05  3132   0.105E-01    0.842E-03
DAV:  14    -0.193969699667E+03   -0.17115E-04   -0.17519E-05  3908   0.295E-02    0.489E-03
DAV:  15    -0.193969714437E+03   -0.14770E-04   -0.52029E-06  2836   0.266E-02    0.352E-03
DAV:  16    -0.193969727806E+03   -0.13368E-04   -0.20962E-06  1940   0.192E-02    0.220E-03
DAV:  17    -0.193969743438E+03   -0.15632E-04   -0.12887E-06  1923   0.915E-03    0.134E-03
DAV:  18    -0.193969752088E+03   -0.86499E-05   -0.66145E-07  1780   0.810E-03    0.125E-03
DAV:  19    -0.193969762857E+03   -0.10770E-04   -0.10357E-06  1827   0.590E-03    0.715E-04
DAV:  20    -0.193969769961E+03   -0.71037E-05   -0.67358E-07  1748   0.405E-03    0.767E-04
DAV:  21    -0.193969772397E+03   -0.24355E-05   -0.28178E-07  1772   0.381E-03    0.528E-04
DAV:  22    -0.193969774625E+03   -0.22285E-05   -0.19094E-07  1668   0.236E-03    0.256E-04
DAV:  23    -0.193969776483E+03   -0.18577E-05   -0.13156E-07  1732   0.169E-03    0.313E-04
DAV:  24    -0.193969777192E+03   -0.70897E-06   -0.63207E-08  1652   0.148E-03
  13 F= -.19396978E+03 E0= -.19393357E+03  d E =-.490662E+00
       N       E                     dE             d eps       ncg     rms          rms(c)
DAV:   1    -0.194032661301E+03   -0.62885E-01   -0.13974E+01  2730   0.673E+00    0.758E-01
DAV:   2    -0.194083123124E+03   -0.50462E-01   -0.53708E-01  4283   0.274E+00    0.776E-01
DAV:   3    -0.194077317187E+03    0.58059E-02   -0.98479E-02  3916   0.397E+00    0.594E-01
DAV:   4    -0.194073225728E+03    0.40915E-02   -0.21302E-02  3300   0.301E+00    0.410E-01
DAV:   5    -0.194071952078E+03    0.12737E-02   -0.95231E-03  3452   0.121E+00    0.164E-01
DAV:   6    -0.194071937758E+03    0.14320E-04   -0.43978E-03  3468   0.116E+00    0.107E-01
DAV:   7    -0.194071897278E+03    0.40480E-04   -0.20094E-03  3308   0.672E-01    0.451E-02
DAV:   8    -0.194071944067E+03   -0.46788E-04   -0.63442E-04  3252   0.202E-01    0.299E-02
DAV:   9    -0.194071968182E+03   -0.24116E-04   -0.19431E-04  3204   0.189E-01    0.243E-02
DAV:  10    -0.194071979727E+03   -0.11545E-04   -0.51022E-05  3404   0.113E-01    0.738E-03
DAV:  11    -0.194071996967E+03   -0.17240E-04   -0.22843E-05  4292   0.547E-02    0.735E-03
DAV:  12    -0.194072007124E+03   -0.10157E-04   -0.84469E-06  2948   0.380E-02    0.255E-03
DAV:  13    -0.194072024153E+03   -0.17029E-04   -0.29743E-06  2140   0.109E-02    0.205E-03
DAV:  14    -0.194072034642E+03   -0.10489E-04   -0.11826E-06  1820   0.133E-02    0.188E-03
DAV:  15    -0.194072043203E+03   -0.85610E-05   -0.79887E-07  1876   0.842E-03    0.785E-04
DAV:  16    -0.194072053222E+03   -0.10019E-04   -0.87656E-07  1836   0.408E-03    0.949E-04
DAV:  17    -0.194072057483E+03   -0.42613E-05   -0.41785E-07  1756   0.571E-03    0.604E-04
DAV:  18    -0.194072061923E+03   -0.44395E-05   -0.36764E-07  1716   0.258E-03    0.374E-04
DAV:  19    -0.194072064478E+03   -0.25551E-05   -0.21279E-07  1716   0.244E-03    0.382E-04
DAV:  20    -0.194072065425E+03   -0.94727E-06   -0.10431E-07  1692   0.208E-03
  14 F= -.19407207E+03 E0= -.19403876E+03  d E =-.102288E+00
       N       E                     dE             d eps       ncg     rms          rms(c)
DAV:   1    -0.194073909731E+03   -0.18453E-02   -0.59213E+00  2730   0.436E+00    0.491E-01
DAV:   2    -0.194094741448E+03   -0.20832E-01   -0.22366E-01  4227   0.169E+00    0.499E-01
DAV:   3    -0.194092506631E+03    0.22348E-02   -0.32481E-02  3724   0.245E+00    0.389E-01
DAV:   4    -0.194090918649E+03    0.15880E-02   -0.79365E-03  3292   0.193E+00    0.273E-01
DAV:   5    -0.194090358152E+03    0.56050E-03   -0.41209E-03  3796   0.822E-01    0.113E-01
DAV:   6    -0.194090329869E+03    0.28283E-04   -0.18731E-03  3444   0.809E-01    0.720E-02
DAV:   7    -0.194090304206E+03    0.25663E-04   -0.83677E-04  3316   0.441E-01    0.296E-02
DAV:   8    -0.194090325016E+03   -0.20810E-04   -0.27203E-04  3380   0.152E-01    0.233E-02
DAV:   9    -0.194090332710E+03   -0.76945E-05   -0.10084E-04  3172   0.128E-01    0.142E-02
DAV:  10    -0.194090342601E+03   -0.98906E-05   -0.22258E-05  3820   0.555E-02    0.490E-03
DAV:  11    -0.194090351513E+03   -0.89116E-05   -0.82013E-06  3140   0.336E-02    0.433E-03
DAV:  12    -0.194090356942E+03   -0.54291E-05   -0.32953E-06  2324   0.224E-02    0.187E-03
DAV:  13    -0.194090365082E+03   -0.81405E-05   -0.11690E-06  1860   0.819E-03    0.152E-03
DAV:  14    -0.194090369563E+03   -0.44806E-05   -0.61023E-07  1660   0.917E-03    0.114E-03
DAV:  15    -0.194090375973E+03   -0.64098E-05   -0.66168E-07  1812   0.493E-03    0.628E-04
DAV:  16    -0.194090381498E+03   -0.55255E-05   -0.49523E-07  1732   0.378E-03    0.700E-04
DAV:  17    -0.194090383891E+03   -0.23931E-05   -0.26635E-07  1700   0.378E-03    0.487E-04
DAV:  18    -0.194090385959E+03   -0.20677E-05   -0.21325E-07  1706   0.250E-03    0.281E-04
DAV:  19    -0.194090386743E+03   -0.78441E-06   -0.12126E-07  1684   0.173E-03
  15 F= -.19409039E+03 E0= -.19405883E+03  d E =-.120610E+00
       N       E                     dE             d eps       ncg     rms          rms(c)
DAV:   1    -0.194130950755E+03   -0.40565E-01   -0.26418E+00  2732   0.322E+00    0.228E-01
DAV:   2    -0.194137304501E+03   -0.63537E-02   -0.66561E-02  4346   0.130E+00    0.232E-01
DAV:   3    -0.194137169714E+03    0.13479E-03   -0.60415E-03  3196   0.124E+00    0.152E-01
DAV:   4    -0.194137082669E+03    0.87045E-04   -0.20949E-03  3156   0.862E-01    0.113E-01
DAV:   5    -0.194137025284E+03    0.57385E-04   -0.10007E-03  3804   0.656E-01    0.680E-02
DAV:   6    -0.194136993482E+03    0.31802E-04   -0.53120E-04  4276   0.332E-01    0.193E-02
DAV:   7    -0.194137002850E+03   -0.93679E-05   -0.18446E-04  3708   0.127E-01    0.134E-02
DAV:   8    -0.194137004865E+03   -0.20149E-05   -0.57148E-05  3140   0.804E-02    0.907E-03
DAV:   9    -0.194137004527E+03    0.33743E-06   -0.11461E-05  2836   0.391E-02    0.486E-03
DAV:  10    -0.194137004558E+03   -0.30384E-07   -0.31885E-06  2084   0.251E-02
  16 F= -.19413700E+03 E0= -.19410598E+03  d E =-.466178E-01
       N       E                     dE             d eps       ncg     rms          rms(c)
DAV:   1    -0.194202728779E+03   -0.65724E-01   -0.23774E+01  2732   0.968E+00    0.718E-01
DAV:   2    -0.194263500562E+03   -0.60772E-01   -0.63556E-01  4290   0.409E+00    0.713E-01
DAV:   3    -0.194262326355E+03    0.11742E-02   -0.55057E-02  3300   0.404E+00    0.471E-01
DAV:   4    -0.194260479240E+03    0.18471E-02   -0.16483E-02  3308   0.261E+00    0.336E-01
DAV:   5    -0.194260379410E+03    0.99829E-04   -0.94643E-03  4412   0.185E+00    0.218E-01
DAV:   6    -0.194259737675E+03    0.64173E-03   -0.53666E-03  4092   0.110E+00    0.518E-02
DAV:   7    -0.194259890689E+03   -0.15301E-03   -0.19216E-03  3483   0.385E-01    0.537E-02
DAV:   8    -0.194259899485E+03   -0.87968E-05   -0.67390E-04  3052   0.311E-01    0.265E-02
DAV:   9    -0.194259897337E+03    0.21479E-05   -0.10604E-04  3228   0.107E-01    0.167E-02
DAV:  10    -0.194259897372E+03   -0.34343E-07   -0.35369E-05  3316   0.872E-02    0.117E-02
DAV:  11    -0.194259898717E+03   -0.13455E-05   -0.18490E-05  3788   0.572E-02    0.374E-03
DAV:  12    -0.194259901050E+03   -0.23323E-05   -0.60723E-06  2796   0.224E-02    0.227E-03
DAV:  13    -0.194259902427E+03   -0.13776E-05   -0.14389E-06  1716   0.113E-02    0.153E-03
DAV:  14    -0.194259903959E+03   -0.15319E-05   -0.65956E-07  1724   0.875E-03    0.951E-04
DAV:  15    -0.194259905448E+03   -0.14885E-05   -0.33797E-07  1652   0.513E-03    0.770E-04
DAV:  16    -0.194259906123E+03   -0.67585E-06   -0.21418E-07  1628   0.340E-03
  17 F= -.19425991E+03 E0= -.19423032E+03  d E =-.169519E+00
       N       E                     dE             d eps       ncg     rms          rms(c)
DAV:   1    -0.194181139096E+03    0.78766E-01   -0.95091E+01  2732   0.195E+01    0.158E+00
DAV:   2    -0.194446643507E+03   -0.26550E+00   -0.27684E+00  4194   0.848E+00    0.143E+00
DAV:   3    -0.194443723989E+03    0.29195E-02   -0.22790E-01  3380   0.861E+00    0.982E-01
DAV:   4    -0.194431936349E+03    0.11788E-01   -0.59810E-02  3492   0.562E+00    0.696E-01
DAV:   5    -0.194431968587E+03   -0.32237E-04   -0.40913E-02  4652   0.349E+00    0.457E-01
DAV:   6    -0.194428707175E+03    0.32614E-02   -0.22747E-02  3876   0.236E+00    0.115E-01
DAV:   7    -0.194429401316E+03   -0.69414E-03   -0.88160E-03  3308   0.717E-01    0.931E-02
DAV:   8    -0.194429458781E+03   -0.57464E-04   -0.27346E-03  3100   0.569E-01    0.624E-02
DAV:   9    -0.194429440420E+03    0.18361E-04   -0.50303E-04  3220   0.284E-01    0.373E-02
DAV:  10    -0.194429431221E+03    0.91990E-05   -0.14678E-04  3748   0.151E-01    0.209E-02
DAV:  11    -0.194429434923E+03   -0.37026E-05   -0.60923E-05  4476   0.100E-01    0.983E-03
DAV:  12    -0.194429440629E+03   -0.57063E-05   -0.26043E-05  3276   0.701E-02    0.681E-03
DAV:  13    -0.194429445174E+03   -0.45448E-05   -0.82079E-06  2852   0.347E-02    0.301E-03
DAV:  14    -0.194429450292E+03   -0.51173E-05   -0.27384E-06  2244   0.153E-02    0.215E-03
DAV:  15    -0.194429453481E+03   -0.31897E-05   -0.12099E-06  1684   0.130E-02    0.147E-03
DAV:  16    -0.194429455867E+03   -0.23855E-05   -0.52361E-07  1724   0.475E-03    0.817E-04
DAV:  17    -0.194429458953E+03   -0.30857E-05   -0.39612E-07  1708   0.434E-03    0.678E-04
DAV:  18    -0.194429460530E+03   -0.15771E-05   -0.22145E-07  1644   0.361E-03    0.415E-04
DAV:  19    -0.194429462377E+03   -0.18474E-05   -0.23305E-07  1692   0.222E-03    0.367E-04
DAV:  20    -0.194429463157E+03   -0.77975E-06   -0.10975E-07  1620   0.203E-03
  18 F= -.19442946E+03 E0= -.19440200E+03  d E =-.339076E+00
       N       E                     dE             d eps       ncg     rms          rms(c)
DAV:   1    -0.193312822924E+03    0.11166E+01   -0.38124E+02  2731   0.403E+01    0.419E+00
DAV:   2    -0.194538417500E+03   -0.12256E+01   -0.12660E+01  4227   0.176E+01    0.294E+00
DAV:   3    -0.194556019967E+03   -0.17602E-01   -0.91375E-01  3428   0.191E+01    0.225E+00
DAV:   4    -0.194471505835E+03    0.84514E-01   -0.25327E-01  3308   0.137E+01    0.162E+00
DAV:   5    -0.194470537985E+03    0.96785E-03   -0.14569E-01  3940   0.686E+00    0.104E+00
DAV:   6    -0.194459120110E+03    0.11418E-01   -0.93054E-02  3604   0.500E+00    0.223E-01
DAV:   7    -0.194462203864E+03   -0.30838E-02   -0.36160E-02  3388   0.154E+00    0.188E-01
DAV:   8    -0.194462560097E+03   -0.35623E-03   -0.11732E-02  3148   0.121E+00    0.112E-01
DAV:   9    -0.194462510624E+03    0.49473E-04   -0.16551E-03  3316   0.441E-01    0.664E-02
DAV:  10    -0.194462480609E+03    0.30015E-04   -0.52464E-04  3332   0.278E-01    0.412E-02
DAV:  11    -0.194462487747E+03   -0.71382E-05   -0.25724E-04  3620   0.241E-01    0.256E-02
DAV:  12    -0.194462499551E+03   -0.11803E-04   -0.13067E-04  3668   0.125E-01    0.110E-02
DAV:  13    -0.194462515652E+03   -0.16102E-04   -0.37171E-05  3308   0.644E-02    0.783E-03
DAV:  14    -0.194462523632E+03   -0.79796E-05   -0.11233E-05  2964   0.393E-02    0.421E-03
DAV:  15    -0.194462536681E+03   -0.13049E-04   -0.61210E-06  2940   0.208E-02    0.235E-03
DAV:  16    -0.194462543260E+03   -0.65783E-05   -0.11369E-06  1812   0.121E-02    0.200E-03
DAV:  17    -0.194462547838E+03   -0.45783E-05   -0.65018E-07  1708   0.818E-03    0.110E-03
DAV:  18    -0.194462556680E+03   -0.88420E-05   -0.10452E-06  1876   0.626E-03    0.825E-04
DAV:  19    -0.194462560515E+03   -0.38351E-05   -0.41451E-07  1796   0.388E-03    0.558E-04
DAV:  20    -0.194462562676E+03   -0.21613E-05   -0.22530E-07  1604   0.330E-03    0.503E-04
DAV:  21    -0.194462564392E+03   -0.17156E-05   -0.18836E-07  1708   0.246E-03    0.263E-04
DAV:  22    -0.194462565497E+03   -0.11054E-05   -0.12097E-07  1620   0.173E-03    0.301E-04
DAV:  23    -0.194462566145E+03   -0.64727E-06   -0.75541E-08  1636   0.167E-03
  19 F= -.19446257E+03 E0= -.19443730E+03  d E =-.372179E+00
       N       E                     dE             d eps       ncg     rms          rms(c)
DAV:   1    -0.194334048893E+03    0.12852E+00   -0.69106E+01  2731   0.167E+01    0.121E+00
DAV:   2    -0.194504877684E+03   -0.17083E+00   -0.18192E+00  4100   0.514E+00    0.989E-01
DAV:   3    -0.194501744196E+03    0.31335E-02   -0.90398E-02  3236   0.423E+00    0.684E-01
DAV:   4    -0.194500748705E+03    0.99549E-03   -0.24606E-02  3372   0.306E+00    0.528E-01
DAV:   5    -0.194503432971E+03   -0.26843E-02   -0.23133E-02  3522   0.393E+00    0.446E-01
DAV:   6    -0.194498625601E+03    0.48074E-02   -0.17568E-02  3922   0.288E+00    0.133E-01
DAV:   7    -0.194498700978E+03   -0.75376E-04   -0.68610E-03  4258   0.693E-01    0.720E-02
DAV:   8    -0.194498734250E+03   -0.33272E-04   -0.16305E-03  3356   0.335E-01    0.525E-02
DAV:   9    -0.194498711288E+03    0.22961E-04   -0.31169E-04  3276   0.214E-01    0.298E-02
DAV:  10    -0.194498705313E+03    0.59751E-05   -0.88501E-05  4252   0.130E-01    0.154E-02
DAV:  11    -0.194498712319E+03   -0.70057E-05   -0.55473E-05  3756   0.924E-02    0.124E-02
DAV:  12    -0.194498715576E+03   -0.32571E-05   -0.26509E-05  3196   0.676E-02    0.430E-03
DAV:  13    -0.194498718615E+03   -0.30387E-05   -0.53320E-06  2812   0.211E-02    0.259E-03
DAV:  14    -0.194498721123E+03   -0.25082E-05   -0.16819E-06  1804   0.160E-02    0.185E-03
DAV:  15    -0.194498724272E+03   -0.31491E-05   -0.89117E-07  1852   0.883E-03    0.887E-04
DAV:  16    -0.194498727801E+03   -0.35296E-05   -0.62436E-07  1764   0.427E-03    0.656E-04
DAV:  17    -0.194498728759E+03   -0.95705E-06   -0.22630E-07  1652   0.356E-03
  20 F= -.19449873E+03 E0= -.19447284E+03  d E =-.408342E+00
       N       E                     dE             d eps       ncg     rms          rms(c)
DAV:   1    -0.194514200355E+03   -0.15473E-01   -0.11080E+01  2731   0.660E+00    0.566E-01
DAV:   2    -0.194547740799E+03   -0.33540E-01   -0.37760E-01  4084   0.247E+00    0.531E-01
DAV:   3    -0.194546124338E+03    0.16165E-02   -0.19425E-02  3252   0.196E+00    0.365E-01
DAV:   4    -0.194545664672E+03    0.45967E-03   -0.51070E-03  3300   0.147E+00    0.288E-01
DAV:   5    -0.194546450669E+03   -0.78600E-03   -0.76316E-03  3652   0.187E+00    0.212E-01
DAV:   6    -0.194544701539E+03    0.17491E-02   -0.31208E-03  4132   0.140E+00    0.486E-02
DAV:   7    -0.194544835721E+03   -0.13418E-03   -0.12913E-03  4172   0.334E-01    0.408E-02
DAV:   8    -0.194544858221E+03   -0.22499E-04   -0.35286E-04  3092   0.217E-01    0.242E-02
DAV:   9    -0.194544878728E+03   -0.20507E-04   -0.88469E-05  3236   0.118E-01    0.141E-02
DAV:  10    -0.194544888815E+03   -0.10087E-04   -0.29878E-05  3524   0.817E-02    0.719E-03
DAV:  11    -0.194544899480E+03   -0.10665E-04   -0.14930E-05  3148   0.493E-02    0.637E-03
DAV:  12    -0.194544904518E+03   -0.50379E-05   -0.52893E-06  2732   0.310E-02    0.268E-03
DAV:  13    -0.194544909311E+03   -0.47935E-05   -0.14809E-06  1852   0.121E-02    0.180E-03
DAV:  14    -0.194544914500E+03   -0.51890E-05   -0.91051E-07  1852   0.934E-03    0.136E-03
DAV:  15    -0.194544919256E+03   -0.47552E-05   -0.74500E-07  1820   0.739E-03    0.930E-04
DAV:  16    -0.194544922861E+03   -0.36049E-05   -0.63654E-07  1812   0.550E-03    0.863E-04
DAV:  17    -0.194544924154E+03   -0.12934E-05   -0.27190E-07  1636   0.278E-03    0.464E-04
DAV:  18    -0.194544924969E+03   -0.81531E-06   -0.13772E-07  1612   0.225E-03
  21 F= -.19454492E+03 E0= -.19451902E+03  d E =-.461962E-01
       N       E                     dE             d eps       ncg     rms          rms(c)
DAV:   1    -0.194544813768E+03    0.11039E-03   -0.75171E-01  2734   0.172E+00    0.146E-01
DAV:   2    -0.194547024657E+03   -0.22109E-02   -0.24841E-02  4060   0.614E-01    0.134E-01
DAV:   3    -0.194546920165E+03    0.10449E-03   -0.13741E-03  3268   0.492E-01    0.932E-02
DAV:   4    -0.194546887650E+03    0.32515E-04   -0.32724E-04  3292   0.340E-01    0.701E-02
DAV:   5    -0.194546981511E+03   -0.93861E-04   -0.42352E-04  3388   0.503E-01    0.596E-02
DAV:   6    -0.194546844841E+03    0.13667E-03   -0.22985E-04  3954   0.397E-01    0.127E-02
DAV:   7    -0.194546854616E+03   -0.97753E-05   -0.88078E-05  4202   0.804E-02    0.103E-02
DAV:   8    -0.194546856140E+03   -0.15239E-05   -0.17801E-05  3100   0.525E-02    0.638E-03
DAV:   9    -0.194546858366E+03   -0.22264E-05   -0.46976E-06  2788   0.260E-02    0.313E-03
DAV:  10    -0.194546859935E+03   -0.15684E-05   -0.25145E-06  2092   0.205E-02    0.215E-03
DAV:  11    -0.194546860677E+03   -0.74261E-06   -0.99148E-07  1612   0.134E-02
  22 F= -.19454686E+03 E0= -.19452095E+03  d E =-.481319E-01
       N       E                     dE             d eps       ncg     rms          rms(c)
DAV:   1    -0.194554789731E+03   -0.79298E-02   -0.56268E-01  2744   0.152E+00    0.984E-02
DAV:   2    -0.194556427968E+03   -0.16382E-02   -0.17173E-02  4052   0.493E-01    0.101E-01
DAV:   3    -0.194556390130E+03    0.37838E-04   -0.91111E-04  3108   0.466E-01    0.796E-02
DAV:   4    -0.194556352633E+03    0.37497E-04   -0.19551E-04  3210   0.321E-01    0.643E-02
DAV:   5    -0.194556352979E+03   -0.34604E-06   -0.18965E-04  4570   0.230E-01    0.303E-02
DAV:   6    -0.194556343963E+03    0.90162E-05   -0.10679E-04  3548   0.204E-01    0.119E-02
DAV:   7    -0.194556346283E+03   -0.23203E-05   -0.39538E-05  3388   0.592E-02    0.613E-03
DAV:   8    -0.194556346739E+03   -0.45577E-06   -0.86976E-06  2724   0.325E-02
  23 F= -.19455635E+03 E0= -.19453049E+03  d E =-.948606E-02
       N       E                     dE             d eps       ncg     rms          rms(c)
DAV:   1    -0.194561846963E+03   -0.55007E-02   -0.50670E+00  2743   0.457E+00    0.297E-01
DAV:   2    -0.194576774355E+03   -0.14927E-01   -0.15595E-01  4100   0.159E+00    0.313E-01
DAV:   3    -0.194576368581E+03    0.40577E-03   -0.88119E-03  3092   0.148E+00    0.238E-01
DAV:   4    -0.194576015245E+03    0.35334E-03   -0.17552E-03  3218   0.941E-01    0.194E-01
DAV:   5    -0.194575940824E+03    0.74421E-04   -0.20179E-03  4434   0.699E-01    0.919E-02
DAV:   6    -0.194575823270E+03    0.11755E-03   -0.99943E-04  3572   0.592E-01    0.320E-02
DAV:   7    -0.194575847061E+03   -0.23792E-04   -0.35484E-04  3340   0.169E-01    0.192E-02
DAV:   8    -0.194575851042E+03   -0.39809E-05   -0.98644E-05  3092   0.114E-01    0.140E-02
DAV:   9    -0.194575851938E+03   -0.89512E-06   -0.29385E-05  3084   0.697E-02    0.825E-03
DAV:  10    -0.194575854391E+03   -0.24536E-05   -0.11972E-05  3140   0.404E-02    0.480E-03
DAV:  11    -0.194575856121E+03   -0.17297E-05   -0.36148E-06  2340   0.250E-02    0.259E-03
DAV:  12    -0.194575857209E+03   -0.10877E-05   -0.14176E-06  1604   0.148E-02    0.148E-03
DAV:  13    -0.194575858857E+03   -0.16485E-05   -0.61916E-07  1716   0.592E-03    0.900E-04
DAV:  14    -0.194575860131E+03   -0.12738E-05   -0.36198E-07  1604   0.462E-03    0.733E-04
DAV:  15    -0.194575861101E+03   -0.97003E-06   -0.24055E-07  1636   0.400E-03
  24 F= -.19457586E+03 E0= -.19455017E+03  d E =-.290004E-01
       N       E                     dE             d eps       ncg     rms          rms(c)
DAV:   1    -0.194517493075E+03    0.58367E-01   -0.20283E+01  2740   0.914E+00    0.603E-01
DAV:   2    -0.194578871520E+03   -0.61378E-01   -0.64088E-01  4123   0.353E+00    0.658E-01
DAV:   3    -0.194576609877E+03    0.22616E-02   -0.35607E-02  3146   0.311E+00    0.477E-01
DAV:   4    -0.194575201890E+03    0.14080E-02   -0.68396E-03  3234   0.182E+00    0.397E-01
DAV:   5    -0.194574523540E+03    0.67835E-03   -0.93532E-03  4266   0.149E+00    0.200E-01
DAV:   6    -0.194573909260E+03    0.61428E-03   -0.44401E-03  3556   0.121E+00    0.613E-02
DAV:   7    -0.194574009405E+03   -0.10014E-03   -0.15306E-03  3460   0.336E-01    0.405E-02
DAV:   8    -0.194574029275E+03   -0.19870E-04   -0.48212E-04  3108   0.244E-01    0.267E-02
DAV:   9    -0.194574031932E+03   -0.26568E-05   -0.94355E-05  3172   0.122E-01    0.157E-02
DAV:  10    -0.194574037486E+03   -0.55546E-05   -0.32811E-05  3220   0.843E-02    0.894E-03
DAV:  11    -0.194574043116E+03   -0.56298E-05   -0.12315E-05  3636   0.329E-02    0.444E-03
DAV:  12    -0.194574046930E+03   -0.38138E-05   -0.44164E-06  2716   0.280E-02    0.330E-03
DAV:  13    -0.194574050243E+03   -0.33128E-05   -0.13019E-06  1652   0.136E-02    0.157E-03
DAV:  14    -0.194574054213E+03   -0.39704E-05   -0.80594E-07  1828   0.709E-03    0.139E-03
DAV:  15    -0.194574057450E+03   -0.32370E-05   -0.61994E-07  1700   0.806E-03    0.875E-04
DAV:  16    -0.194574060154E+03   -0.27037E-05   -0.32572E-07  1740   0.374E-03    0.694E-04
DAV:  17    -0.194574062547E+03   -0.23932E-05   -0.27504E-07  1668   0.368E-03    0.603E-04
DAV:  18    -0.194574064952E+03   -0.24046E-05   -0.24429E-07  1740   0.303E-03    0.366E-04
DAV:  19    -0.194574066454E+03   -0.15020E-05   -0.19015E-07  1708   0.196E-03    0.340E-04
DAV:  20    -0.194574067098E+03   -0.64395E-06   -0.91340E-08  1596   0.180E-03
  25 F= -.19457407E+03 E0= -.19454861E+03  d E =-.272064E-01
       N       E                     dE             d eps       ncg     rms          rms(c)
DAV:   1    -0.194566130862E+03    0.79356E-02   -0.59371E+00  2740   0.493E+00    0.322E-01
DAV:   2    -0.194582882570E+03   -0.16752E-01   -0.17919E-01  4009   0.139E+00    0.319E-01
DAV:   3    -0.194582449246E+03    0.43332E-03   -0.75717E-03  3156   0.115E+00    0.257E-01
DAV:   4    -0.194582222925E+03    0.22632E-03   -0.20287E-03  3202   0.107E+00    0.214E-01
DAV:   5    -0.194581915231E+03    0.30769E-03   -0.13336E-03  4610   0.800E-01    0.108E-01
DAV:   6    -0.194581889698E+03    0.25533E-04   -0.10873E-03  3540   0.723E-01    0.538E-02
DAV:   7    -0.194581872972E+03    0.16726E-04   -0.53894E-04  4020   0.290E-01    0.229E-02
DAV:   8    -0.194581880783E+03   -0.78117E-05   -0.12778E-04  3940   0.102E-01    0.146E-02
DAV:   9    -0.194581883849E+03   -0.30660E-05   -0.37502E-05  3132   0.636E-02    0.107E-02
DAV:  10    -0.194581889733E+03   -0.58833E-05   -0.22686E-05  3212   0.474E-02    0.604E-03
DAV:  11    -0.194581892006E+03   -0.22738E-05   -0.66575E-06  2796   0.317E-02    0.429E-03
DAV:  12    -0.194581893342E+03   -0.13355E-05   -0.24879E-06  1732   0.210E-02    0.149E-03
DAV:  13    -0.194581895623E+03   -0.22814E-05   -0.97578E-07  1764   0.805E-03    0.163E-03
DAV:  14    -0.194581896552E+03   -0.92888E-06   -0.34178E-07  1580   0.464E-03
  26 F= -.19458190E+03 E0= -.19455633E+03  d E =-.350359E-01
       N       E                     dE             d eps       ncg     rms          rms(c)
DAV:   1    -0.194585588646E+03   -0.36930E-02   -0.91787E-02  2734   0.614E-01    0.382E-02
DAV:   2    -0.194585836217E+03   -0.24757E-03   -0.26344E-03  4028   0.194E-01    0.389E-02
DAV:   3    -0.194585820736E+03    0.15481E-04   -0.10462E-04  3156   0.129E-01    0.255E-02
DAV:   4    -0.194585821357E+03   -0.62038E-06   -0.16066E-05  3292   0.653E-02    0.206E-02
DAV:   5    -0.194585837934E+03   -0.16577E-04   -0.21172E-05  3388   0.109E-01    0.157E-02
DAV:   6    -0.194585829633E+03    0.83010E-05   -0.16429E-05  3650   0.101E-01    0.325E-03
DAV:   7    -0.194585831110E+03   -0.14770E-05   -0.61034E-06  3242   0.256E-02    0.277E-03
DAV:   8    -0.194585831747E+03   -0.63778E-06   -0.21392E-06  1788   0.147E-02
  27 F= -.19458583E+03 E0= -.19456022E+03  d E =-.393520E-02
       N       E                     dE             d eps       ncg     rms          rms(c)
DAV:   1    -0.194595126462E+03   -0.92954E-02   -0.82616E-01  2741   0.184E+00    0.116E-01
DAV:   2    -0.194597380507E+03   -0.22540E-02   -0.23959E-02  4036   0.590E-01    0.118E-01
DAV:   3    -0.194597249885E+03    0.13062E-03   -0.96373E-04  3172   0.389E-01    0.768E-02
DAV:   4    -0.194597245650E+03    0.42342E-05   -0.14878E-04  3244   0.196E-01    0.618E-02
DAV:   5    -0.194597350867E+03   -0.10522E-03   -0.18448E-04  3468   0.318E-01    0.460E-02
DAV:   6    -0.194597279048E+03    0.71820E-04   -0.15076E-04  4146   0.302E-01    0.105E-02
DAV:   7    -0.194597287815E+03   -0.87671E-05   -0.59513E-05  4340   0.869E-02    0.820E-03
DAV:   8    -0.194597289256E+03   -0.14412E-05   -0.14892E-05  2996   0.427E-02    0.541E-03
DAV:   9    -0.194597289954E+03   -0.69791E-06   -0.43105E-06  2452   0.217E-02
  28 F= -.19459729E+03 E0= -.19457157E+03  d E =-.153934E-01
       N       E                     dE             d eps       ncg     rms          rms(c)
DAV:   1    -0.194609959267E+03   -0.12670E-01   -0.33040E+00  2740   0.369E+00    0.235E-01
DAV:   2    -0.194619146688E+03   -0.91874E-02   -0.97662E-02  4049   0.121E+00    0.241E-01
DAV:   3    -0.194618656608E+03    0.49008E-03   -0.37843E-03  3212   0.769E-01    0.155E-01
DAV:   4    -0.194618600439E+03    0.56169E-04   -0.60108E-04  3252   0.401E-01    0.126E-01
DAV:   5    -0.194618953140E+03   -0.35270E-03   -0.82365E-04  3412   0.691E-01    0.988E-02
DAV:   6    -0.194618635970E+03    0.31717E-03   -0.63056E-04  4281   0.629E-01    0.201E-02
DAV:   7    -0.194618673447E+03   -0.37478E-04   -0.27140E-04  4332   0.176E-01    0.172E-02
DAV:   8    -0.194618678334E+03   -0.48870E-05   -0.62920E-05  3116   0.830E-02    0.103E-02
DAV:   9    -0.194618680269E+03   -0.19352E-05   -0.12945E-05  3012   0.382E-02    0.663E-03
DAV:  10    -0.194618682878E+03   -0.26085E-05   -0.61543E-06  2924   0.323E-02    0.382E-03
DAV:  11    -0.194618684507E+03   -0.16292E-05   -0.25127E-06  1892   0.201E-02    0.242E-03
DAV:  12    -0.194618685267E+03   -0.75967E-06   -0.98041E-07  1716   0.110E-02
  29 F= -.19461869E+03 E0= -.19459276E+03  d E =-.367887E-01
       N       E                     dE             d eps       ncg     rms          rms(c)
DAV:   1    -0.194619744658E+03   -0.10602E-02   -0.13200E+01  2740   0.738E+00    0.484E-01
DAV:   2    -0.194658116153E+03   -0.38371E-01   -0.40696E-01  4051   0.254E+00    0.503E-01
DAV:   3    -0.194656028841E+03    0.20873E-02   -0.15532E-02  3260   0.159E+00    0.313E-01
DAV:   4    -0.194655724818E+03    0.30402E-03   -0.25983E-03  3356   0.904E-01    0.262E-01
DAV:   5    -0.194656598696E+03   -0.87388E-03   -0.36847E-03  3372   0.141E+00    0.198E-01
DAV:   6    -0.194655374055E+03    0.12246E-02   -0.24377E-03  4466   0.119E+00    0.443E-02
DAV:   7    -0.194655539490E+03   -0.16543E-03   -0.12964E-03  4276   0.398E-01    0.397E-02
DAV:   8    -0.194655554563E+03   -0.15074E-04   -0.32676E-04  3180   0.193E-01    0.235E-02
DAV:   9    -0.194655558255E+03   -0.36915E-05   -0.71745E-05  3332   0.909E-02    0.147E-02
DAV:  10    -0.194655564021E+03   -0.57662E-05   -0.27021E-05  3396   0.659E-02    0.721E-03
DAV:  11    -0.194655568043E+03   -0.40223E-05   -0.10498E-05  3076   0.392E-02    0.507E-03
DAV:  12    -0.194655570742E+03   -0.26990E-05   -0.40697E-06  2660   0.239E-02    0.268E-03
DAV:  13    -0.194655574741E+03   -0.39992E-05   -0.11814E-06  1794   0.142E-02    0.133E-03
DAV:  14    -0.194655577029E+03   -0.22880E-05   -0.62815E-07  1700   0.753E-03    0.102E-03
DAV:  15    -0.194655579620E+03   -0.25910E-05   -0.44102E-07  1756   0.595E-03    0.741E-04
DAV:  16    -0.194655581366E+03   -0.17454E-05   -0.25573E-07  1644   0.283E-03    0.428E-04
DAV:  17    -0.194655582748E+03   -0.13825E-05   -0.16054E-07  1660   0.249E-03    0.413E-04
DAV:  18    -0.194655584936E+03   -0.21876E-05   -0.16543E-07  1796   0.197E-03    0.236E-04
DAV:  19    -0.194655586529E+03   -0.15933E-05   -0.14412E-07  1748   0.177E-03    0.290E-04
DAV:  20    -0.194655586867E+03   -0.33836E-06   -0.61421E-08  1601   0.147E-03
  30 F= -.19465559E+03 E0= -.19462922E+03  d E =-.736903E-01
       N       E                     dE             d eps       ncg     rms          rms(c)
DAV:   1    -0.194554139308E+03    0.10145E+00   -0.52739E+01  2740   0.148E+01    0.100E+00
DAV:   2    -0.194717088697E+03   -0.16295E+00   -0.17306E+00  4051   0.533E+00    0.103E+00
DAV:   3    -0.194708437559E+03    0.86511E-02   -0.64517E-02  3300   0.335E+00    0.632E-01
DAV:   4    -0.194707194583E+03    0.12430E-02   -0.11636E-02  3652   0.202E+00    0.538E-01
DAV:   5    -0.194708858494E+03   -0.16639E-02   -0.14523E-02  3500   0.271E+00    0.381E-01
DAV:   6    -0.194704422053E+03    0.44364E-02   -0.93886E-03  4810   0.211E+00    0.985E-02
DAV:   7    -0.194704968984E+03   -0.54693E-03   -0.53971E-03  3852   0.906E-01    0.892E-02
DAV:   8    -0.194705030125E+03   -0.61141E-04   -0.17817E-03  3156   0.448E-01    0.461E-02
DAV:   9    -0.194705043381E+03   -0.13256E-04   -0.31671E-04  3300   0.187E-01    0.313E-02
DAV:  10    -0.194705055470E+03   -0.12089E-04   -0.12653E-04  3412   0.144E-01    0.130E-02
DAV:  11    -0.194705066908E+03   -0.11438E-04   -0.36115E-05  3412   0.628E-02    0.991E-03
DAV:  12    -0.194705076623E+03   -0.97145E-05   -0.15257E-05  3123   0.523E-02    0.625E-03
DAV:  13    -0.194705084509E+03   -0.78862E-05   -0.53798E-06  2828   0.322E-02    0.252E-03
DAV:  14    -0.194705092361E+03   -0.78518E-05   -0.27942E-06  2346   0.149E-02    0.213E-03
DAV:  15    -0.194705095975E+03   -0.36143E-05   -0.84475E-07  1700   0.101E-02    0.124E-03
DAV:  16    -0.194705101734E+03   -0.57588E-05   -0.60643E-07  1824   0.556E-03    0.869E-04
DAV:  17    -0.194705107189E+03   -0.54551E-05   -0.51489E-07  1828   0.405E-03    0.740E-04
DAV:  18    -0.194705109534E+03   -0.23452E-05   -0.27158E-07  1716   0.391E-03    0.373E-04
DAV:  19    -0.194705112970E+03   -0.34355E-05   -0.31622E-07  1794   0.234E-03    0.432E-04
DAV:  20    -0.194705114889E+03   -0.19190E-05   -0.19254E-07  1788   0.242E-03    0.347E-04
DAV:  21    -0.194705115855E+03   -0.96590E-06   -0.12839E-07  1697   0.201E-03
  31 F= -.19470512E+03 E0= -.19467787E+03  d E =-.123219E+00
       N       E                     dE             d eps       ncg     rms          rms(c)
DAV:   1    -0.194042291223E+03    0.66282E+00   -0.21089E+02  2748   0.301E+01    0.209E+00
DAV:   2    -0.194754499603E+03   -0.71221E+00   -0.75550E+00  4043   0.108E+01    0.201E+00
DAV:   3    -0.194722106460E+03    0.32393E-01   -0.25404E-01  3420   0.676E+00    0.126E+00
DAV:   4    -0.194718720243E+03    0.33862E-02   -0.50701E-02  3788   0.453E+00    0.110E+00
DAV:   5    -0.194722714550E+03   -0.39943E-02   -0.58708E-02  3828   0.549E+00    0.750E-01
DAV:   6    -0.194705273129E+03    0.17441E-01   -0.38277E-02  4938   0.377E+00    0.181E-01
DAV:   7    -0.194707317651E+03   -0.20445E-02   -0.20123E-02  3499   0.164E+00    0.188E-01
DAV:   8    -0.194707517892E+03   -0.20024E-03   -0.78511E-03  3211   0.955E-01    0.836E-02
DAV:   9    -0.194707587219E+03   -0.69327E-04   -0.13706E-03  3292   0.317E-01    0.582E-02
DAV:  10    -0.194707611002E+03   -0.23784E-04   -0.47381E-04  3268   0.277E-01    0.258E-02
DAV:  11    -0.194707659651E+03   -0.48649E-04   -0.12760E-04  3780   0.119E-01    0.228E-02
DAV:  12    -0.194707687469E+03   -0.27818E-04   -0.56092E-05  3324   0.107E-01    0.117E-02
DAV:  13    -0.194707702895E+03   -0.15426E-04   -0.20262E-05  3732   0.534E-02    0.567E-03
DAV:  14    -0.194707728090E+03   -0.25195E-04   -0.12149E-05  3100   0.317E-02    0.441E-03
DAV:  15    -0.194707737487E+03   -0.93963E-05   -0.31306E-06  2356   0.212E-02    0.313E-03
DAV:  16    -0.194707756639E+03   -0.19153E-04   -0.27260E-06  2168   0.152E-02    0.190E-03
DAV:  17    -0.194707768317E+03   -0.11678E-04   -0.10228E-06  1922   0.779E-03    0.200E-03
DAV:  18    -0.194707774132E+03   -0.58148E-05   -0.67382E-07  1817   0.742E-03    0.824E-04
DAV:  19    -0.194707787210E+03   -0.13079E-04   -0.16226E-06  2040   0.470E-03    0.113E-03
DAV:  20    -0.194707790773E+03   -0.35621E-05   -0.35909E-07  1868   0.405E-03    0.583E-04
DAV:  21    -0.194707792527E+03   -0.17540E-05   -0.21346E-07  1748   0.313E-03    0.375E-04
DAV:  22    -0.194707793937E+03   -0.14107E-05   -0.16374E-07  1756   0.183E-03    0.302E-04
DAV:  23    -0.194707794554E+03   -0.61659E-06   -0.78980E-08  1636   0.159E-03
  32 F= -.19470779E+03 E0= -.19467881E+03  d E =-.125898E+00
       N       E                     dE             d eps       ncg     rms          rms(c)
DAV:   1    -0.194591484640E+03    0.11631E+00   -0.48125E+01  2740   0.142E+01    0.893E-01
DAV:   2    -0.194729786055E+03   -0.13830E+00   -0.14411E+00  3979   0.428E+00    0.852E-01
DAV:   3    -0.194725738903E+03    0.40472E-02   -0.54193E-02  3187   0.335E+00    0.592E-01
DAV:   4    -0.194725082389E+03    0.65651E-03   -0.11647E-02  3284   0.244E+00    0.502E-01
DAV:   5    -0.194725768553E+03   -0.68616E-03   -0.14136E-02  3594   0.281E+00    0.453E-01
DAV:   6    -0.194722155768E+03    0.36128E-02   -0.95231E-03  4482   0.198E+00    0.764E-02
DAV:   7    -0.194722570367E+03   -0.41460E-03   -0.44584E-03  4051   0.479E-01    0.676E-02
DAV:   8    -0.194722587524E+03   -0.17157E-04   -0.81011E-04  3100   0.331E-01    0.419E-02
DAV:   9    -0.194722581056E+03    0.64679E-05   -0.19123E-04  3340   0.156E-01    0.182E-02
DAV:  10    -0.194722590355E+03   -0.92987E-05   -0.54287E-05  3476   0.892E-02    0.136E-02
DAV:  11    -0.194722596941E+03   -0.65864E-05   -0.26029E-05  3300   0.727E-02    0.702E-03
DAV:  12    -0.194722603432E+03   -0.64907E-05   -0.94895E-06  3524   0.319E-02    0.307E-03
DAV:  13    -0.194722608567E+03   -0.51351E-05   -0.22927E-06  2116   0.189E-02    0.198E-03
DAV:  14    -0.194722612078E+03   -0.35114E-05   -0.89101E-07  1609   0.962E-03    0.136E-03
DAV:  15    -0.194722619767E+03   -0.76885E-05   -0.83589E-07  1820   0.678E-03    0.873E-04
DAV:  16    -0.194722623567E+03   -0.38005E-05   -0.39045E-07  1809   0.418E-03    0.804E-04
DAV:  17    -0.194722625069E+03   -0.15020E-05   -0.20224E-07  1617   0.350E-03    0.531E-04
DAV:  18    -0.194722630060E+03   -0.49904E-05   -0.30761E-07  1747   0.312E-03    0.465E-04
DAV:  19    -0.194722631274E+03   -0.12143E-05   -0.15051E-07  1681   0.219E-03    0.280E-04
DAV:  20    -0.194722632436E+03   -0.11615E-05   -0.96567E-08  1673   0.194E-03    0.286E-04
DAV:  21    -0.194722633090E+03   -0.65484E-06   -0.58277E-08  1608   0.142E-03
  33 F= -.19472263E+03 E0= -.19469447E+03  d E =-.140737E+00
       N       E                     dE             d eps       ncg     rms          rms(c)
DAV:   1    -0.194712432879E+03    0.10200E-01   -0.97012E+00  2732   0.626E+00    0.445E-01
DAV:   2    -0.194742609091E+03   -0.30176E-01   -0.32166E-01  4002   0.185E+00    0.415E-01
DAV:   3    -0.194741471508E+03    0.11376E-02   -0.88795E-03  3364   0.117E+00    0.301E-01
DAV:   4    -0.194741464038E+03    0.74697E-05   -0.27763E-03  3370   0.124E+00    0.266E-01
DAV:   5    -0.194741585234E+03   -0.12120E-03   -0.35067E-03  3994   0.134E+00    0.151E-01
DAV:   6    -0.194740859087E+03    0.72615E-03   -0.19428E-03  5041   0.846E-01    0.403E-02
DAV:   7    -0.194740953332E+03   -0.94245E-04   -0.80573E-04  3972   0.286E-01    0.376E-02
DAV:   8    -0.194740957018E+03   -0.36858E-05   -0.21972E-04  3148   0.179E-01    0.203E-02
DAV:   9    -0.194740964094E+03   -0.70761E-05   -0.54702E-05  3372   0.906E-02    0.134E-02
DAV:  10    -0.194740966497E+03   -0.24030E-05   -0.23950E-05  3356   0.727E-02    0.571E-03
DAV:  11    -0.194740969097E+03   -0.26000E-05   -0.73194E-06  2812   0.321E-02    0.384E-03
DAV:  12    -0.194740971827E+03   -0.27292E-05   -0.27233E-06  2204   0.216E-02    0.233E-03
DAV:  13    -0.194740973381E+03   -0.15540E-05   -0.99645E-07  1684   0.115E-02    0.101E-03
DAV:  14    -0.194740975895E+03   -0.25142E-05   -0.68131E-07  1796   0.608E-03    0.834E-04
DAV:  15    -0.194740976681E+03   -0.78639E-06   -0.26037E-07  1577   0.390E-03
  34 F= -.19474098E+03 E0= -.19471259E+03  d E =-.183436E-01
       N       E                     dE             d eps       ncg     rms          rms(c)
DAV:   1    -0.194718824804E+03    0.22151E-01   -0.90053E+00  2732   0.602E+00    0.432E-01
DAV:   2    -0.194746996467E+03   -0.28172E-01   -0.30034E-01  3963   0.179E+00    0.406E-01
DAV:   3    -0.194745905027E+03    0.10914E-02   -0.86297E-03  3348   0.116E+00    0.293E-01
DAV:   4    -0.194745883829E+03    0.21197E-04   -0.25513E-03  3386   0.120E+00    0.259E-01
DAV:   5    -0.194745980702E+03   -0.96872E-04   -0.31428E-03  4090   0.128E+00    0.146E-01
DAV:   6    -0.194745322038E+03    0.65866E-03   -0.18083E-03  4993   0.816E-01    0.382E-02
DAV:   7    -0.194745411224E+03   -0.89186E-04   -0.76516E-04  3988   0.276E-01    0.352E-02
DAV:   8    -0.194745415952E+03   -0.47278E-05   -0.20311E-04  3148   0.168E-01    0.194E-02
DAV:   9    -0.194745422268E+03   -0.63169E-05   -0.45625E-05  3364   0.807E-02    0.116E-02
DAV:  10    -0.194745425370E+03   -0.31020E-05   -0.19377E-05  3324   0.627E-02    0.540E-03
DAV:  11    -0.194745428400E+03   -0.30299E-05   -0.66297E-06  2804   0.318E-02    0.379E-03
DAV:  12    -0.194745431177E+03   -0.27765E-05   -0.24707E-06  2164   0.206E-02    0.229E-03
DAV:  13    -0.194745432832E+03   -0.16549E-05   -0.91395E-07  1700   0.110E-02    0.959E-04
DAV:  14    -0.194745435571E+03   -0.27396E-05   -0.72850E-07  1812   0.590E-03    0.842E-04
DAV:  15    -0.194745436334E+03   -0.76281E-06   -0.25373E-07  1588   0.367E-03
  35 F= -.19474544E+03 E0= -.19471685E+03  d E =-.228032E-01
       N       E                     dE             d eps       ncg     rms          rms(c)
DAV:   1    -0.194733919057E+03    0.11517E-01   -0.10174E+01  2730   0.629E+00    0.463E-01
DAV:   2    -0.194765725576E+03   -0.31807E-01   -0.33391E-01  3986   0.177E+00    0.420E-01
DAV:   3    -0.194764982747E+03    0.74283E-03   -0.11319E-02  3268   0.137E+00    0.318E-01
DAV:   4    -0.194765109286E+03   -0.12654E-03   -0.37816E-03  3290   0.151E+00    0.285E-01
DAV:   5    -0.194764703818E+03    0.40547E-03   -0.31104E-03  4153   0.127E+00    0.177E-01
DAV:   6    -0.194764433146E+03    0.27067E-03   -0.19955E-03  4329   0.817E-01    0.385E-02
DAV:   7    -0.194764518141E+03   -0.84995E-04   -0.66243E-04  4194   0.190E-01    0.293E-02
DAV:   8    -0.194764518995E+03   -0.85437E-06   -0.15878E-04  3100   0.181E-01    0.245E-02
DAV:   9    -0.194764514116E+03    0.48791E-05   -0.40815E-05  3380   0.808E-02    0.118E-02
DAV:  10    -0.194764514836E+03   -0.72020E-06   -0.21606E-05  3556   0.623E-02    0.823E-03
DAV:  11    -0.194764514886E+03   -0.49593E-07   -0.91592E-06  3044   0.408E-02
  36 F= -.19476451E+03 E0= -.19473591E+03  d E =-.190786E-01
       N       E                     dE             d eps       ncg     rms          rms(c)
DAV:   1    -0.194490885419E+03    0.27363E+00   -0.91037E+01  2730   0.189E+01    0.149E+00
DAV:   2    -0.194813508873E+03   -0.32262E+00   -0.33757E+00  4018   0.634E+00    0.141E+00
DAV:   3    -0.194801875003E+03    0.11634E-01   -0.11629E-01  3252   0.502E+00    0.999E-01
DAV:   4    -0.194801074866E+03    0.80014E-03   -0.37166E-02  3266   0.459E+00    0.897E-01
DAV:   5    -0.194795210474E+03    0.58644E-02   -0.30894E-02  4058   0.380E+00    0.578E-01
DAV:   6    -0.194791864904E+03    0.33456E-02   -0.21782E-02  3932   0.255E+00    0.131E-01
DAV:   7    -0.194792822274E+03   -0.95737E-03   -0.84433E-03  4044   0.743E-01    0.975E-02
DAV:   8    -0.194792847311E+03   -0.25036E-04   -0.21291E-03  3092   0.637E-01    0.797E-02
DAV:   9    -0.194792794488E+03    0.52823E-04   -0.51823E-04  3276   0.246E-01    0.350E-02
DAV:  10    -0.194792790037E+03    0.44513E-05   -0.14269E-04  4036   0.133E-01    0.160E-02
DAV:  11    -0.194792796549E+03   -0.65127E-05   -0.69580E-05  3555   0.854E-02    0.115E-02
DAV:  12    -0.194792799570E+03   -0.30209E-05   -0.27224E-05  3140   0.656E-02    0.497E-03
DAV:  13    -0.194792801889E+03   -0.23190E-05   -0.48397E-06  2676   0.230E-02    0.297E-03
DAV:  14    -0.194792803381E+03   -0.14918E-05   -0.20811E-06  1825   0.166E-02    0.172E-03
DAV:  15    -0.194792805153E+03   -0.17722E-05   -0.78347E-07  1761   0.933E-03    0.115E-03
DAV:  16    -0.194792806063E+03   -0.91025E-06   -0.46341E-07  1609   0.520E-03
  37 F= -.19479281E+03 E0= -.19476402E+03  d E =-.473697E-01
       N       E                     dE             d eps       ncg     rms          rms(c)
DAV:   1    -0.194765736520E+03    0.27069E-01   -0.16359E+01  2730   0.767E+00    0.729E-01
DAV:   2    -0.194818925730E+03   -0.53189E-01   -0.57878E-01  4034   0.213E+00    0.544E-01
DAV:   3    -0.194817459288E+03    0.14664E-02   -0.19100E-02  3258   0.173E+00    0.415E-01
DAV:   4    -0.194818287686E+03   -0.82840E-03   -0.94133E-03  3346   0.242E+00    0.363E-01
DAV:   5    -0.194816531168E+03    0.17565E-02   -0.56146E-03  4226   0.189E+00    0.154E-01
DAV:   6    -0.194816389299E+03    0.14187E-03   -0.25106E-03  4188   0.110E+00    0.789E-02
DAV:   7    -0.194816408162E+03   -0.18863E-04   -0.12436E-03  4003   0.428E-01    0.363E-02
DAV:   8    -0.194816430741E+03   -0.22579E-04   -0.28333E-04  3372   0.168E-01    0.282E-02
DAV:   9    -0.194816444326E+03   -0.13585E-04   -0.11367E-04  3252   0.128E-01    0.174E-02
DAV:  10    -0.194816466609E+03   -0.22283E-04   -0.52802E-05  3244   0.863E-02    0.964E-03
DAV:  11    -0.194816472291E+03   -0.56821E-05   -0.14937E-05  3332   0.411E-02    0.622E-03
DAV:  12    -0.194816480069E+03   -0.77784E-05   -0.72330E-06  2884   0.333E-02    0.417E-03
DAV:  13    -0.194816487012E+03   -0.69430E-05   -0.29281E-06  2116   0.165E-02    0.290E-03
DAV:  14    -0.194816492309E+03   -0.52968E-05   -0.91479E-07  1924   0.690E-03    0.152E-03
DAV:  15    -0.194816496715E+03   -0.44063E-05   -0.52527E-07  1756   0.766E-03    0.109E-03
DAV:  16    -0.194816504710E+03   -0.79948E-05   -0.81372E-07  1914   0.610E-03    0.128E-03
DAV:  17    -0.194816509471E+03   -0.47609E-05   -0.45603E-07  1852   0.446E-03    0.658E-04
DAV:  18    -0.194816512092E+03   -0.26205E-05   -0.29121E-07  1740   0.346E-03    0.449E-04
DAV:  19    -0.194816514865E+03   -0.27737E-05   -0.32957E-07  1788   0.210E-03    0.463E-04
DAV:  20    -0.194816515921E+03   -0.10555E-05   -0.14975E-07  1777   0.216E-03    0.325E-04
DAV:  21    -0.194816516414E+03   -0.49284E-06   -0.78577E-08  1617   0.161E-03
  38 F= -.19481652E+03 E0= -.19478744E+03  d E =-.237104E-01
       N       E                     dE             d eps       ncg     rms          rms(c)
DAV:   1    -0.194815067490E+03    0.14484E-02   -0.76557E-01  2732   0.166E+00    0.155E-01
DAV:   2    -0.194817454693E+03   -0.23872E-02   -0.25871E-02  4018   0.444E-01    0.113E-01
DAV:   3    -0.194817405390E+03    0.49303E-04   -0.90756E-04  3298   0.424E-01    0.891E-02
DAV:   4    -0.194817439141E+03   -0.33750E-04   -0.41463E-04  3410   0.544E-01    0.761E-02
DAV:   5    -0.194817362544E+03    0.76597E-04   -0.23334E-04  4992   0.330E-01    0.248E-02
DAV:   6    -0.194817363027E+03   -0.48353E-06   -0.97219E-05  4844   0.151E-01    0.150E-02
DAV:   7    -0.194817363117E+03   -0.90338E-07   -0.37696E-05  3259   0.863E-02    0.849E-03
DAV:   8    -0.194817364082E+03   -0.96462E-06   -0.13520E-05  2940   0.401E-02    0.554E-03
DAV:   9    -0.194817365274E+03   -0.11923E-05   -0.40265E-06  2580   0.212E-02    0.310E-03
DAV:  10    -0.194817366588E+03   -0.13131E-05   -0.21664E-06  1740   0.197E-02    0.228E-03
DAV:  11    -0.194817366929E+03   -0.34145E-06   -0.61025E-07  1601   0.897E-03
  39 F= -.19481737E+03 E0= -.19478823E+03  d E =-.245609E-01
       N       E                     dE             d eps       ncg     rms          rms(c)
DAV:   1    -0.194816161974E+03    0.12046E-02   -0.38850E+00  2732   0.363E+00    0.358E-01
DAV:   2    -0.194828704230E+03   -0.12542E-01   -0.13524E-01  3995   0.109E+00    0.289E-01
DAV:   3    -0.194828210363E+03    0.49387E-03   -0.60970E-03  3116   0.818E-01    0.201E-01
DAV:   4    -0.194828225339E+03   -0.14976E-04   -0.15584E-03  3338   0.710E-01    0.145E-01
DAV:   5    -0.194828630093E+03   -0.40475E-03   -0.12812E-03  3338   0.955E-01    0.126E-01
DAV:   6    -0.194828327472E+03    0.30262E-03   -0.96201E-04  3474   0.857E-01    0.393E-02
DAV:   7    -0.194828311601E+03    0.15871E-04   -0.26589E-04  4730   0.220E-01    0.192E-02
DAV:   8    -0.194828313078E+03   -0.14772E-05   -0.98992E-05  4026   0.936E-02    0.140E-02
DAV:   9    -0.194828313402E+03   -0.32375E-06   -0.24953E-05  3252   0.574E-02    0.898E-03
DAV:  10    -0.194828314149E+03   -0.74756E-06   -0.97864E-06  3211   0.337E-02
  40 F= -.19482831E+03 E0= -.19479920E+03  d E =-.109472E-01
       N       E                     dE             d eps       ncg     rms          rms(c)
DAV:   1    -0.194765336518E+03    0.62977E-01   -0.23860E+01  2730   0.900E+00    0.915E-01
DAV:   2    -0.194847237026E+03   -0.81901E-01   -0.87659E-01  3987   0.285E+00    0.743E-01
DAV:   3    -0.194844392846E+03    0.28442E-02   -0.40975E-02  3116   0.223E+00    0.508E-01
DAV:   4    -0.194844006821E+03    0.38603E-03   -0.10751E-02  3396   0.191E+00    0.380E-01
DAV:   5    -0.194845826534E+03   -0.18197E-02   -0.93891E-03  3338   0.260E+00    0.351E-01
DAV:   6    -0.194843488232E+03    0.23383E-02   -0.63531E-03  3602   0.219E+00    0.919E-02
DAV:   7    -0.194843543412E+03   -0.55180E-04   -0.19001E-03  4788   0.519E-01    0.540E-02
DAV:   8    -0.194843546441E+03   -0.30288E-05   -0.75643E-04  3915   0.306E-01    0.415E-02
DAV:   9    -0.194843542888E+03    0.35526E-05   -0.22266E-04  3356   0.165E-01    0.238E-02
DAV:  10    -0.194843544054E+03   -0.11652E-05   -0.77278E-05  3348   0.922E-02    0.117E-02
DAV:  11    -0.194843545866E+03   -0.18128E-05   -0.26534E-05  3348   0.599E-02    0.498E-03
DAV:  12    -0.194843548929E+03   -0.30629E-05   -0.87752E-06  2900   0.313E-02    0.407E-03
DAV:  13    -0.194843551471E+03   -0.25415E-05   -0.20896E-06  1844   0.164E-02    0.164E-03
DAV:  14    -0.194843553032E+03   -0.15612E-05   -0.66738E-07  1660   0.917E-03    0.130E-03
DAV:  15    -0.194843554796E+03   -0.17641E-05   -0.38066E-07  1756   0.654E-03    0.709E-04
DAV:  16    -0.194843556310E+03   -0.15136E-05   -0.29523E-07  1708   0.338E-03    0.505E-04
DAV:  17    -0.194843557455E+03   -0.11451E-05   -0.17612E-07  1724   0.278E-03    0.451E-04
DAV:  18    -0.194843558079E+03   -0.62399E-06   -0.12584E-07  1601   0.226E-03
  41 F= -.19484356E+03 E0= -.19481448E+03  d E =-.261911E-01
       N       E                     dE             d eps       ncg     rms          rms(c)
DAV:   1    -0.194833551315E+03    0.10006E-01   -0.36232E+00  2730   0.349E+00    0.350E-01
DAV:   2    -0.194845144932E+03   -0.11594E-01   -0.12576E-01  3995   0.106E+00    0.279E-01
DAV:   3    -0.194844655903E+03    0.48903E-03   -0.57611E-03  3116   0.792E-01    0.194E-01
DAV:   4    -0.194844652283E+03    0.36192E-05   -0.15035E-03  3404   0.671E-01    0.139E-01
DAV:   5    -0.194844987543E+03   -0.33526E-03   -0.99898E-04  3364   0.793E-01    0.100E-01
DAV:   6    -0.194844880322E+03    0.10722E-03   -0.82073E-04  3450   0.775E-01    0.455E-02
DAV:   7    -0.194844836423E+03    0.43899E-04   -0.23762E-04  4672   0.277E-01    0.198E-02
DAV:   8    -0.194844836511E+03   -0.87661E-07   -0.10435E-04  4483   0.102E-01    0.146E-02
DAV:   9    -0.194844836240E+03    0.27101E-06   -0.25407E-05  3300   0.572E-02    0.919E-03
DAV:  10    -0.194844836653E+03   -0.41374E-06   -0.10288E-05  3212   0.314E-02    0.346E-03
DAV:  11    -0.194844837348E+03   -0.69442E-06   -0.28497E-06  2364   0.200E-02
  42 F= -.19484484E+03 E0= -.19481576E+03  d E =-.274704E-01
       N       E                     dE             d eps       ncg     rms          rms(c)
DAV:   1    -0.194828998453E+03    0.15838E-01   -0.80716E+00  2730   0.509E+00    0.555E-01
DAV:   2    -0.194857507849E+03   -0.28509E-01   -0.31171E-01  4084   0.191E+00    0.544E-01
DAV:   3    -0.194855256905E+03    0.22509E-02   -0.22294E-02  3588   0.191E+00    0.383E-01
DAV:   4    -0.194854852473E+03    0.40443E-03   -0.60779E-03  3242   0.174E+00    0.316E-01
DAV:   5    -0.194854240442E+03    0.61203E-03   -0.31060E-03  3250   0.134E+00    0.195E-01
DAV:   6    -0.194854157603E+03    0.82839E-04   -0.22192E-03  3698   0.858E-01    0.653E-02
DAV:   7    -0.194854176279E+03   -0.18676E-04   -0.96137E-04  3780   0.439E-01    0.372E-02
DAV:   8    -0.194854184611E+03   -0.83320E-05   -0.29035E-04  3452   0.192E-01    0.257E-02
DAV:   9    -0.194854187106E+03   -0.24950E-05   -0.95279E-05  3260   0.120E-01    0.162E-02
DAV:  10    -0.194854192432E+03   -0.53255E-05   -0.30984E-05  3404   0.671E-02    0.704E-03
DAV:  11    -0.194854196069E+03   -0.36372E-05   -0.12230E-05  3388   0.459E-02    0.353E-03
DAV:  12    -0.194854199091E+03   -0.30216E-05   -0.32498E-06  2308   0.175E-02    0.206E-03
DAV:  13    -0.194854203042E+03   -0.39517E-05   -0.11603E-06  1788   0.101E-02    0.138E-03
DAV:  14    -0.194854204744E+03   -0.17014E-05   -0.44658E-07  1620   0.729E-03    0.907E-04
DAV:  15    -0.194854207100E+03   -0.23567E-05   -0.40890E-07  1668   0.479E-03    0.559E-04
DAV:  16    -0.194854208268E+03   -0.11674E-05   -0.23466E-07  1588   0.207E-03    0.460E-04
DAV:  17    -0.194854209390E+03   -0.11225E-05   -0.12661E-07  1668   0.265E-03    0.431E-04
[...]
DAV:  12    -0.195039856856E+03   -0.11448E-05   -0.78954E-07  1673   0.904E-03    0.139E-03
DAV:  13    -0.195039857952E+03   -0.10954E-05   -0.40510E-07  1729   0.551E-03    0.723E-04
DAV:  14    -0.195039858532E+03   -0.58004E-06   -0.22681E-07  1585   0.399E-03
 109 F= -.19503986E+03 E0= -.19501292E+03  d E =-.283257E-02
       N       E                     dE             d eps       ncg     rms          rms(c)
DAV:   1    -0.195036387928E+03    0.34700E-02   -0.13693E+00  2730   0.212E+00    0.159E-01
DAV:   2    -0.195040293135E+03   -0.39052E-02   -0.40418E-02  3903   0.554E-01    0.142E-01
DAV:   3    -0.195040229497E+03    0.63639E-04   -0.12103E-03  3260   0.362E-01    0.106E-01
DAV:   4    -0.195040254335E+03   -0.24838E-04   -0.35317E-04  3380   0.456E-01    0.961E-02
DAV:   5    -0.195040254090E+03    0.24453E-06   -0.41490E-04  3322   0.561E-01    0.586E-02
DAV:   6    -0.195040124517E+03    0.12957E-03   -0.19176E-04  4362   0.356E-01    0.137E-02
DAV:   7    -0.195040132774E+03   -0.82575E-05   -0.90083E-05  4066   0.616E-02    0.999E-03
DAV:   8    -0.195040132814E+03   -0.39930E-07   -0.11891E-05  3002   0.418E-02    0.639E-03
DAV:   9    -0.195040132621E+03    0.19319E-06   -0.27114E-06  1816   0.234E-02
 110 F= -.19504013E+03 E0= -.19501319E+03  d E =-.310666E-02
       N       E                     dE             d eps       ncg     rms          rms(c)
DAV:   1    -0.195038881624E+03    0.12512E-02   -0.62894E-01  2730   0.143E+00    0.110E-01
DAV:   2    -0.195040696392E+03   -0.18148E-02   -0.18789E-02  4005   0.414E-01    0.997E-02
DAV:   3    -0.195040646751E+03    0.49642E-04   -0.58372E-04  3147   0.284E-01    0.714E-02
DAV:   4    -0.195040637071E+03    0.96796E-05   -0.13732E-04  3308   0.256E-01    0.555E-02
DAV:   5    -0.195040657466E+03   -0.20395E-04   -0.16787E-04  3428   0.346E-01    0.467E-02
DAV:   6    -0.195040608737E+03    0.48729E-04   -0.11201E-04  3554   0.283E-01    0.100E-02
DAV:   7    -0.195040609176E+03   -0.43906E-06   -0.37040E-05  4625   0.512E-02    0.693E-03
DAV:   8    -0.195040609402E+03   -0.22637E-06   -0.93055E-06  3084   0.311E-02
 111 F= -.19504061E+03 E0= -.19501371E+03  d E =-.476781E-03
       N       E                     dE             d eps       ncg     rms          rms(c)
DAV:   1    -0.195038471271E+03    0.21379E-02   -0.86345E-01  2730   0.167E+00    0.130E-01
DAV:   2    -0.195040977734E+03   -0.25065E-02   -0.25911E-02  4005   0.468E-01    0.115E-01
DAV:   3    -0.195040914610E+03    0.63123E-04   -0.76317E-04  3172   0.316E-01    0.834E-02
DAV:   4    -0.195040909674E+03    0.49362E-05   -0.22980E-04  3292   0.328E-01    0.669E-02
DAV:   5    -0.195040927289E+03   -0.17615E-04   -0.25872E-04  3404   0.421E-01    0.564E-02
DAV:   6    -0.195040862974E+03    0.64315E-04   -0.15712E-04  3593   0.330E-01    0.132E-02
DAV:   7    -0.195040862323E+03    0.65088E-06   -0.55114E-05  4761   0.799E-02    0.918E-03
DAV:   8    -0.195040862829E+03   -0.50617E-06   -0.15760E-05  3316   0.436E-02    0.652E-03
DAV:   9    -0.195040862943E+03   -0.11403E-06   -0.60008E-06  2660   0.265E-02
 112 F= -.19504086E+03 E0= -.19501400E+03  d E =-.730322E-03
       N       E                     dE             d eps       ncg     rms          rms(c)
DAV:   1    -0.195040791943E+03    0.70886E-04   -0.30712E-02  2730   0.316E-01    0.249E-02
DAV:   2    -0.195040884562E+03   -0.92619E-04   -0.95309E-04  4050   0.103E-01    0.230E-02
DAV:   3    -0.195040882249E+03    0.23131E-05   -0.31676E-05  3124   0.781E-02    0.162E-02
DAV:   4    -0.195040882002E+03    0.24709E-06   -0.86920E-06  3100   0.644E-02
 113 F= -.19504088E+03 E0= -.19501401E+03  d E =-.749381E-03
       N       E                     dE             d eps       ncg     rms          rms(c)
DAV:   1    -0.195040540434E+03    0.34182E-03   -0.12151E-01  2730   0.638E-01    0.495E-02
DAV:   2    -0.195040905454E+03   -0.36502E-03   -0.36399E-03  4042   0.203E-01    0.450E-02
DAV:   3    -0.195040903410E+03    0.20431E-05   -0.22340E-04  3153   0.250E-01    0.417E-02
DAV:   4    -0.195040888131E+03    0.15279E-04   -0.60381E-05  3353   0.175E-01    0.276E-02
DAV:   5    -0.195040884372E+03    0.37596E-05   -0.43796E-05  4201   0.412E-02    0.118E-02
DAV:   6    -0.195040883625E+03    0.74692E-06   -0.18590E-05  3369   0.469E-02    0.718E-03
DAV:   7    -0.195040883401E+03    0.22416E-06   -0.50146E-06  2924   0.326E-02
 114 F= -.19504088E+03 E0= -.19501405E+03  d E =-.750779E-03
       N       E                     dE             d eps       ncg     rms          rms(c)
DAV:   1    -0.195040826227E+03    0.57398E-04   -0.22308E-02  2730   0.269E-01    0.203E-02
DAV:   2    -0.195040890133E+03   -0.63906E-04   -0.66627E-04  4050   0.857E-02    0.194E-02
DAV:   3    -0.195040888320E+03    0.18125E-05   -0.20973E-05  3196   0.652E-02    0.140E-02
DAV:   4    -0.195040888354E+03   -0.34284E-07   -0.72944E-06  2932   0.616E-02
 115 F= -.19504089E+03 E0= -.19501407E+03  d E =-.755733E-03
       N       E                     dE             d eps       ncg     rms          rms(c)
DAV:   1    -0.195040938512E+03   -0.50192E-04   -0.45269E-02  2730   0.389E-01    0.309E-02
DAV:   2    -0.195041089684E+03   -0.15117E-03   -0.15058E-03  4171   0.158E-01    0.292E-02
DAV:   3    -0.195041086790E+03    0.28936E-05   -0.93393E-05  3100   0.175E-01    0.255E-02
DAV:   4    -0.195041080594E+03    0.61963E-05   -0.22862E-05  3284   0.104E-01    0.171E-02
DAV:   5    -0.195041079513E+03    0.10805E-05   -0.19436E-05  4180   0.428E-02    0.937E-03
DAV:   6    -0.195041079116E+03    0.39727E-06   -0.11697E-05  3292   0.551E-02    0.501E-03
DAV:   7    -0.195041078885E+03    0.23103E-06   -0.29582E-06  1964   0.258E-02
 116 F= -.19504108E+03 E0= -.19501424E+03  d E =-.190531E-03
       N       E                     dE             d eps       ncg     rms          rms(c)
DAV:   1    -0.195041028039E+03    0.51077E-04   -0.59585E-02  2730   0.433E-01    0.355E-02
DAV:   2    -0.195041213342E+03   -0.18530E-03   -0.19238E-03  3985   0.126E-01    0.323E-02
DAV:   3    -0.195041209098E+03    0.42442E-05   -0.52349E-05  3220   0.849E-02    0.245E-02
DAV:   4    -0.195041209507E+03   -0.40920E-06   -0.23311E-05  3316   0.101E-01    0.215E-02
DAV:   5    -0.195041208420E+03    0.10870E-05   -0.22146E-05  3322   0.121E-01    0.149E-02
DAV:   6    -0.195041204092E+03    0.43281E-05   -0.13669E-05  3274   0.966E-02    0.421E-03
DAV:   7    -0.195041203843E+03    0.24930E-06   -0.31316E-06  2122   0.276E-02
 117 F= -.19504120E+03 E0= -.19501437E+03  d E =-.315488E-03
       N       E                     dE             d eps       ncg     rms          rms(c)
DAV:   1    -0.195040440178E+03    0.76391E-03   -0.23820E-01  2730   0.867E-01    0.705E-02
DAV:   2    -0.195041173534E+03   -0.73336E-03   -0.75988E-03  3985   0.247E-01    0.640E-02
DAV:   3    -0.195041159327E+03    0.14207E-04   -0.21167E-04  3188   0.188E-01    0.491E-02
DAV:   4    -0.195041163725E+03   -0.43988E-05   -0.74064E-05  3348   0.222E-01    0.432E-02
DAV:   5    -0.195041154453E+03    0.92725E-05   -0.85178E-05  3346   0.249E-01    0.302E-02
DAV:   6    -0.195041135423E+03    0.19030E-04   -0.45454E-05  3602   0.170E-01    0.658E-03
DAV:   7    -0.195041136741E+03   -0.13183E-05   -0.16070E-05  4204   0.381E-02    0.544E-03
DAV:   8    -0.195041136917E+03   -0.17590E-06   -0.36145E-06  2436   0.265E-02
 118 F= -.19504114E+03 E0= -.19501432E+03  d E =-.248562E-03
       N       E                     dE             d eps       ncg     rms          rms(c)
DAV:   1    -0.195040934800E+03    0.20194E-03   -0.10302E-01  2730   0.570E-01    0.456E-02
DAV:   2    -0.195041248875E+03   -0.31408E-03   -0.32536E-03  3993   0.164E-01    0.427E-02
DAV:   3    -0.195041242133E+03    0.67424E-05   -0.93166E-05  3260   0.126E-01    0.327E-02
DAV:   4    -0.195041242455E+03   -0.32218E-06   -0.34953E-05  3364   0.142E-01    0.289E-02
DAV:   5    -0.195041238918E+03    0.35366E-05   -0.37990E-05  3348   0.163E-01    0.202E-02
DAV:   6    -0.195041229772E+03    0.91460E-05   -0.24105E-05  3532   0.119E-01    0.524E-03
DAV:   7    -0.195041230047E+03   -0.27515E-06   -0.83365E-06  3411   0.365E-02
 119 F= -.19504123E+03 E0= -.19501441E+03  d E =-.341693E-03
       N       E                     dE             d eps       ncg     rms          rms(c)
DAV:   1    -0.195041314920E+03   -0.85147E-04   -0.19022E-02  2730   0.251E-01    0.189E-02
DAV:   2    -0.195041373612E+03   -0.58692E-04   -0.60437E-04  4031   0.891E-02    0.188E-02
DAV:   3    -0.195041371827E+03    0.17848E-05   -0.19838E-05  3252   0.651E-02    0.129E-02
DAV:   4    -0.195041371396E+03    0.43045E-06   -0.67848E-06  2724   0.459E-02
 120 F= -.19504137E+03 E0= -.19501455E+03  d E =-.141349E-03
       N       E                     dE             d eps       ncg     rms          rms(c)
DAV:   1    -0.195041255800E+03    0.11603E-03   -0.17059E-01  2730   0.751E-01    0.576E-02
DAV:   2    -0.195041767073E+03   -0.51127E-03   -0.51976E-03  4007   0.207E-01    0.490E-02
DAV:   3    -0.195041770637E+03   -0.35641E-05   -0.21268E-04  3177   0.218E-01    0.432E-02
DAV:   4    -0.195041760979E+03    0.96573E-05   -0.56276E-05  3305   0.200E-01    0.313E-02
DAV:   5    -0.195041750414E+03    0.10566E-04   -0.47791E-05  5041   0.961E-02    0.157E-02
DAV:   6    -0.195041748967E+03    0.14462E-05   -0.24131E-05  3500   0.810E-02    0.959E-03
DAV:   7    -0.195041748514E+03    0.45320E-06   -0.84652E-06  2884   0.346E-02
 121 F= -.19504175E+03 E0= -.19501496E+03  d E =-.518467E-03
       N       E                     dE             d eps       ncg     rms          rms(c)
DAV:   1    -0.195040328446E+03    0.14205E-02   -0.68648E-01  2730   0.150E+00    0.115E-01
DAV:   2    -0.195042388390E+03   -0.20599E-02   -0.21138E-02  3987   0.429E-01    0.999E-02
DAV:   3    -0.195042353391E+03    0.34998E-04   -0.54189E-04  3252   0.276E-01    0.733E-02
DAV:   4    -0.195042346595E+03    0.67961E-05   -0.26660E-04  3404   0.291E-01    0.630E-02
DAV:   5    -0.195042311563E+03    0.35033E-04   -0.21690E-04  3692   0.240E-01    0.283E-02
DAV:   6    -0.195042304107E+03    0.74552E-05   -0.89577E-05  3649   0.175E-01    0.118E-02
DAV:   7    -0.195042304051E+03    0.56461E-07   -0.27432E-05  4473   0.836E-02    0.856E-03
DAV:   8    -0.195042303610E+03    0.44133E-06   -0.89295E-06  2996   0.443E-02
 122 F= -.19504230E+03 E0= -.19501561E+03  d E =-.107356E-02
       N       E                     dE             d eps       ncg     rms          rms(c)
DAV:   1    -0.195034720427E+03    0.75836E-02   -0.27470E+00  2730   0.300E+00    0.229E-01
DAV:   2    -0.195042894207E+03   -0.81738E-02   -0.83825E-02  3979   0.836E-01    0.195E-01
DAV:   3    -0.195042787403E+03    0.10680E-03   -0.21829E-03  3244   0.549E-01    0.146E-01
DAV:   4    -0.195042814405E+03   -0.27002E-04   -0.93099E-04  3380   0.688E-01    0.126E-01
DAV:   5    -0.195042769754E+03    0.44651E-04   -0.76551E-04  3500   0.717E-01    0.868E-02
DAV:   6    -0.195042580784E+03    0.18897E-03   -0.40270E-04  3761   0.499E-01    0.264E-02
DAV:   7    -0.195042583832E+03   -0.30486E-05   -0.16627E-04  4640   0.156E-01    0.184E-02
DAV:   8    -0.195042583824E+03    0.82655E-08   -0.48329E-05  3460   0.756E-02    0.915E-03
DAV:   9    -0.195042584389E+03   -0.56438E-06   -0.13275E-05  3204   0.431E-02    0.609E-03
DAV:  10    -0.195042584829E+03   -0.44034E-06   -0.52251E-06  2708   0.299E-02
 123 F= -.19504258E+03 E0= -.19501605E+03  d E =-.135478E-02
       N       E                     dE             d eps       ncg     rms          rms(c)
DAV:   1    -0.195042103688E+03    0.48070E-03   -0.17703E-01  2730   0.761E-01    0.579E-02
DAV:   2    -0.195042633156E+03   -0.52947E-03   -0.54496E-03  4001   0.217E-01    0.512E-02
DAV:   3    -0.195042623902E+03    0.92540E-05   -0.12971E-04  3252   0.130E-01    0.369E-02
DAV:   4    -0.195042620554E+03    0.33486E-05   -0.47080E-05  3420   0.135E-01    0.313E-02
DAV:   5    -0.195042610902E+03    0.96519E-05   -0.40922E-05  3388   0.113E-01    0.117E-02
DAV:   6    -0.195042608623E+03    0.22791E-05   -0.20563E-05  3924   0.890E-02    0.596E-03
DAV:   7    -0.195042608232E+03    0.39121E-06   -0.61881E-06  2964   0.448E-02
 124 F= -.19504261E+03 E0= -.19501603E+03  d E =-.137818E-02
       N       E                     dE             d eps       ncg     rms          rms(c)
DAV:   1    -0.195042653777E+03   -0.45155E-04   -0.37702E-02  2730   0.347E-01    0.305E-02
DAV:   2    -0.195042778353E+03   -0.12458E-03   -0.13211E-03  4050   0.117E-01    0.283E-02
DAV:   3    -0.195042774858E+03    0.34947E-05   -0.42661E-05  3068   0.921E-02    0.207E-02
DAV:   4    -0.195042773804E+03    0.10543E-05   -0.14185E-05  3292   0.789E-02    0.169E-02
DAV:   5    -0.195042774098E+03   -0.29441E-06   -0.14869E-05  3098   0.984E-02    0.111E-02
DAV:   6    -0.195042769115E+03    0.49833E-05   -0.85274E-06  2521   0.749E-02    0.370E-03
DAV:   7    -0.195042769291E+03   -0.17649E-06   -0.41479E-06  2460   0.253E-02
 125 F= -.19504277E+03 E0= -.19501620E+03  d E =-.161060E-03
       N       E                     dE             d eps       ncg     rms          rms(c)
DAV:   1    -0.195042589040E+03    0.18007E-03   -0.85802E-02  2730   0.522E-01    0.465E-02
DAV:   2    -0.195042873541E+03   -0.28450E-03   -0.29939E-03  4042   0.153E-01    0.401E-02
DAV:   3    -0.195042868883E+03    0.46580E-05   -0.10199E-04  3036   0.118E-01    0.304E-02
DAV:   4    -0.195042867626E+03    0.12573E-05   -0.34102E-05  3348   0.126E-01    0.252E-02
DAV:   5    -0.195042867839E+03   -0.21391E-06   -0.30796E-05  3601   0.144E-01    0.157E-02
DAV:   6    -0.195042858053E+03    0.97862E-05   -0.16313E-05  3569   0.111E-01    0.587E-03
DAV:   7    -0.195042858289E+03   -0.23597E-06   -0.66205E-06  3100   0.339E-02
 126 F= -.19504286E+03 E0= -.19501631E+03  d E =-.250058E-03
       N       E                     dE             d eps       ncg     rms          rms(c)
DAV:   1    -0.195042916912E+03   -0.58858E-04   -0.82516E-03  2730   0.168E-01    0.141E-02
DAV:   2    -0.195042944168E+03   -0.27256E-04   -0.27687E-04  4043   0.468E-02    0.114E-02
DAV:   3    -0.195042943894E+03    0.27445E-06   -0.83715E-06  2812   0.350E-02
 127 F= -.19504294E+03 E0= -.19501641E+03  d E =-.856044E-04
       N       E                     dE             d eps       ncg     rms          rms(c)
DAV:   1    -0.195042956770E+03   -0.12602E-04   -0.74233E-02  2730   0.499E-01    0.417E-02
DAV:   2    -0.195043181801E+03   -0.22503E-03   -0.23374E-03  4034   0.149E-01    0.374E-02
DAV:   3    -0.195043177143E+03    0.46588E-05   -0.76672E-05  3020   0.112E-01    0.269E-02
DAV:   4    -0.195043175507E+03    0.16355E-05   -0.24119E-05  3364   0.908E-02    0.209E-02
DAV:   5    -0.195043179502E+03   -0.39945E-05   -0.23328E-05  3409   0.123E-01    0.146E-02
DAV:   6    -0.195043170806E+03    0.86952E-05   -0.13751E-05  3529   0.104E-01    0.436E-03
DAV:   7    -0.195043170995E+03   -0.18883E-06   -0.48939E-06  2795   0.315E-02
 128 F= -.19504317E+03 E0= -.19501665E+03  d E =-.312706E-03
       N       E                     dE             d eps       ncg     rms          rms(c)
DAV:   1    -0.195042638937E+03    0.53187E-03   -0.29726E-01  2730   0.994E-01    0.805E-02
DAV:   2    -0.195043536398E+03   -0.89746E-03   -0.92570E-03  4018   0.305E-01    0.697E-02
DAV:   3    -0.195043528266E+03    0.81324E-05   -0.38312E-04  3004   0.246E-01    0.509E-02
DAV:   4    -0.195043521646E+03    0.66198E-05   -0.84431E-05  3388   0.186E-01    0.384E-02
DAV:   5    -0.195043543147E+03   -0.21501E-04   -0.79413E-05  3513   0.250E-01    0.312E-02
DAV:   6    -0.195043503484E+03    0.39663E-04   -0.49319E-05  3905   0.202E-01    0.721E-03
DAV:   7    -0.195043505333E+03   -0.18487E-05   -0.21803E-05  4235   0.496E-02    0.592E-03
DAV:   8    -0.195043505416E+03   -0.83528E-07   -0.57879E-06  2707   0.288E-02
 129 F= -.19504351E+03 E0= -.19501702E+03  d E =-.647127E-03
       N       E                     dE             d eps       ncg     rms          rms(c)
DAV:   1    -0.195040265542E+03    0.32398E-02   -0.11896E+00  2730   0.199E+00    0.161E-01
DAV:   2    -0.195043846865E+03   -0.35813E-02   -0.36966E-02  4034   0.621E-01    0.141E-01
DAV:   3    -0.195043809694E+03    0.37171E-04   -0.15741E-03  3004   0.504E-01    0.102E-01
DAV:   4    -0.195043781363E+03    0.28331E-04   -0.33475E-04  3372   0.374E-01    0.773E-02
DAV:   5    -0.195043869762E+03   -0.88399E-04   -0.34615E-04  3556   0.503E-01    0.634E-02
DAV:   6    -0.195043708168E+03    0.16159E-03   -0.20113E-04  3961   0.409E-01    0.135E-02
DAV:   7    -0.195043715814E+03   -0.76468E-05   -0.85430E-05  4153   0.853E-02    0.985E-03
DAV:   8    -0.195043716481E+03   -0.66630E-06   -0.18291E-05  2996   0.469E-02    0.608E-03
DAV:   9    -0.195043716724E+03   -0.24372E-06   -0.53100E-06  2835   0.263E-02
 130 F= -.19504372E+03 E0= -.19501730E+03  d E =-.858435E-03
       N       E                     dE             d eps       ncg     rms          rms(c)
DAV:   1    -0.195043533088E+03    0.18339E-03   -0.66579E-02  2730   0.471E-01    0.374E-02
DAV:   2    -0.195043731273E+03   -0.19818E-03   -0.20592E-03  4034   0.143E-01    0.331E-02
DAV:   3    -0.195043728897E+03    0.23755E-05   -0.80419E-05  3004   0.114E-01    0.241E-02
DAV:   4    -0.195043727628E+03    0.12691E-05   -0.20358E-05  3332   0.910E-02    0.187E-02
DAV:   5    -0.195043731276E+03   -0.36474E-05   -0.17666E-05  3364   0.114E-01    0.139E-02
DAV:   6    -0.195043723419E+03    0.78568E-05   -0.11321E-05  3066   0.947E-02    0.426E-03
DAV:   7    -0.195043723592E+03   -0.17311E-06   -0.49913E-06  2787   0.286E-02
 131 F= -.19504372E+03 E0= -.19501729E+03  d E =-.865303E-03
       N       E                     dE             d eps       ncg     rms          rms(c)
DAV:   1    -0.195043771707E+03   -0.48289E-04   -0.39415E-03  2742   0.131E-01    0.137E-02
DAV:   2    -0.195043788334E+03   -0.16627E-04   -0.18201E-04  4068   0.460E-02    0.130E-02
DAV:   3    -0.195043787011E+03    0.13230E-05   -0.94608E-06  3132   0.436E-02    0.971E-03
DAV:   4    -0.195043786483E+03    0.52823E-06   -0.37827E-06  2268   0.413E-02
 132 F= -.19504379E+03 E0= -.19501735E+03  d E =-.628914E-04
       N       E                     dE             d eps       ncg     rms          rms(c)
DAV:   1    -0.195043790471E+03   -0.34600E-05   -0.11047E-03  3562   0.867E-02    0.904E-03
DAV:   2    -0.195043797079E+03   -0.66073E-05   -0.44266E-05  4482   0.877E-02    0.122E-02
DAV:   3    -0.195043792814E+03    0.42649E-05   -0.86237E-06  3009   0.733E-02    0.653E-03
DAV:   4    -0.195043792464E+03    0.34954E-06   -0.20936E-06  1811   0.203E-02
 133 F= -.19504379E+03 E0= -.19501737E+03  d E =-.688724E-04
       N       E                     dE             d eps       ncg     rms          rms(c)
DAV:   1    -0.195043838046E+03   -0.45232E-04   -0.37205E-03  2833   0.125E-01    0.629E-03
DAV:   2    -0.195043845003E+03   -0.69570E-05   -0.77781E-05  4348   0.513E-02    0.749E-03
DAV:   3    -0.195043844587E+03    0.41636E-06   -0.64860E-06  2780   0.386E-02
 134 F= -.19504384E+03 E0= -.19501741E+03  d E =-.521223E-04
       N       E                     dE             d eps       ncg     rms          rms(c)
DAV:   1    -0.195043922632E+03   -0.77629E-04   -0.33452E-02  2775   0.369E-01    0.175E-02
DAV:   2    -0.195043981536E+03   -0.58905E-04   -0.63950E-04  4100   0.116E-01    0.192E-02
DAV:   3    -0.195043979364E+03    0.21726E-05   -0.35494E-05  3132   0.769E-02    0.127E-02
DAV:   4    -0.195043978281E+03    0.10827E-05   -0.64429E-06  2796   0.374E-02    0.995E-03
DAV:   5    -0.195043979421E+03   -0.11405E-05   -0.62834E-06  2833   0.606E-02    0.834E-03
DAV:   6    -0.195043976502E+03    0.29196E-05   -0.49142E-06  2321   0.571E-02    0.297E-03
DAV:   7    -0.195043976461E+03    0.40687E-07   -0.21823E-06  1739   0.201E-02
 135 F= -.19504398E+03 E0= -.19501755E+03  d E =-.183997E-03
