Cu(100) coverage-dependent binding (RPBE
            1
     7.668573    0.000000    0.000000
     0.000000    7.668573    0.000000
     0.000000    0.000000   29.422500
   Cu   C    O    C    O    C    O    C    O    C    O    C    O 
    36     1     1     1     1     1     1     1     1     1     1     1     1
Direct configuration=     1
   0.16666667  0.16666667  0.40785113
   0.50000000  0.16666667  0.40785113
   0.83333333  0.16666667  0.40785113
   0.16666667  0.50000000  0.40785113
   0.50000000  0.50000000  0.40785113
   0.83333333  0.50000000  0.40785113
   0.16666667  0.83333333  0.40785113
   0.50000000  0.83333333  0.40785113
   0.83333333  0.83333333  0.40785113
   0.00000000  0.00000000  0.46928371
   0.33333333  0.00000000  0.46928371
   0.66666667  0.00000000  0.46928371
   0.00000000  0.33333333  0.46928371
   0.33333333  0.33333333  0.46928371
   0.66666667  0.33333333  0.46928371
   0.00000000  0.66666667  0.46928371
   0.33333333  0.66666667  0.46928371
   0.66666667  0.66666667  0.46928371
   0.16666667  0.16666667  0.53071629
   0.50000000  0.16666667  0.53071629
   0.83333333  0.16666667  0.53071629
   0.16666667  0.50000000  0.53071629
   0.50000000  0.50000000  0.53071629
   0.83333333  0.50000000  0.53071629
   0.16666667  0.83333333  0.53071629
   0.50000000  0.83333333  0.53071629
   0.83333333  0.83333333  0.53071629
   0.00000000  0.00000000  0.59214887
   0.33333333  0.00000000  0.59214887
   0.66666667  0.00000000  0.59214887
   0.00000000  0.33333333  0.59214887
   0.33333333  0.33333333  0.59214887
   0.66666667  0.33333333  0.59214887
   0.00000000  0.66666667  0.59214887
   0.33333333  0.66666667  0.59214887
   0.66666667  0.66666667  0.59214887
   0.16666667  0.16666667  0.64313026
   0.16666667  0.16666667  0.68255587
   0.16666667  0.50000000  0.64313026
   0.16666667  0.50000000  0.68255587
   0.16666667  0.83333333  0.64313026
   0.16666667  0.83333333  0.68255587
   0.50000000  0.16666667  0.64313026
   0.50000000  0.16666667  0.68255587
   0.50000000  0.50000000  0.64313026
   0.50000000  0.50000000  0.68255587
   0.50000000  0.83333333  0.64313026
   0.50000000  0.83333333  0.68255587
Direct configuration=     2
   0.16666667  0.16666667  0.40785113
   0.50000000  0.16666667  0.40785113
   0.83333333  0.16666667  0.40785113
   0.16666667  0.50000000  0.40785113
   0.50000000  0.50000000  0.40785113
   0.83333333  0.50000000  0.40785113
   0.16666667  0.83333333  0.40785113
   0.50000000  0.83333333  0.40785113
   0.83333333  0.83333333  0.40785113
   0.00000000  0.00000000  0.46928371
   0.33333333  0.00000000  0.46928371
   0.66666667  0.00000000  0.46928371
   0.00000000  0.33333333  0.46928371
   0.33333333  0.33333333  0.46928371
   0.66666667  0.33333333  0.46928371
   0.00000000  0.66666667  0.46928371
   0.33333333  0.66666667  0.46928371
   0.66666667  0.66666667  0.46928371
   0.16718012  0.16669045  0.53024524
   0.49951953  0.16669702  0.53024796
   0.83331453  0.16669093  0.53112552
   0.16718661  0.50000000  0.53024794
   0.49951959  0.49999999  0.53025714
   0.83330827  0.50000000  0.53112805
   0.16718011  0.83330955  0.53024524
   0.49951953  0.83330299  0.53024796
   0.83331454  0.83330907  0.53112552
   0.00013715  0.99999999  0.59314016
   0.33327657  0.00000001  0.59339391
   0.66659908  0.00000001  0.59314059
   0.00013830  0.33327395  0.59314065
   0.33330696  0.33330186  0.59339249
   0.66657222  0.33330198  0.59314070
   0.00013831  0.66672606  0.59314065
   0.33330693  0.66669814  0.59339250
   0.66657224  0.66669801  0.59314070
   0.16144407  0.16663761  0.64007374
   0.16345243  0.16660407  0.68511105
   0.16143464  0.50000002  0.64006913
   0.16346968  0.50000001  0.68510647
   0.16144406  0.83336237  0.64007373
   0.16345243  0.83339593  0.68511104
   0.50520067  0.16662856  0.64006913
   0.50317552  0.16662111  0.68510660
   0.50520079  0.49999999  0.64005605
   0.50317542  0.49999999  0.68513917
   0.50520066  0.83337145  0.64006914
   0.50317552  0.83337890  0.68510659
Direct configuration=     3
   0.16666667  0.16666667  0.40785113
   0.50000000  0.16666667  0.40785113
   0.83333333  0.16666667  0.40785113
   0.16666667  0.50000000  0.40785113
   0.50000000  0.50000000  0.40785113
   0.83333333  0.50000000  0.40785113
   0.16666667  0.83333333  0.40785113
   0.50000000  0.83333333  0.40785113
   0.83333333  0.83333333  0.40785113
   0.00000000  0.00000000  0.46928371
   0.33333333  0.00000000  0.46928371
   0.66666667  0.00000000  0.46928371
   0.00000000  0.33333333  0.46928371
   0.33333333  0.33333333  0.46928371
   0.66666667  0.33333333  0.46928371
   0.00000000  0.66666667  0.46928371
   0.33333333  0.66666667  0.46928371
   0.66666667  0.66666667  0.46928371
   0.16674369  0.16667023  0.53064563
   0.49992793  0.16667122  0.53064604
   0.83333051  0.16667031  0.53077768
   0.16674466  0.50000000  0.53064603
   0.49992793  0.50000000  0.53064741
   0.83332957  0.50000000  0.53077806
   0.16674369  0.83332977  0.53064563
   0.49992793  0.83332878  0.53064604
   0.83333051  0.83332969  0.53077768
   0.00002057  1.00000000  0.59229757
   0.33332482  0.00000000  0.59233563
   0.66665653  0.00000000  0.59229763
   0.00002075  0.33332443  0.59229764
   0.33332938  0.33332861  0.59233542
   0.66665250  0.33332863  0.59229765
   0.00002075  0.66667558  0.59229764
   0.33332937  0.66667139  0.59233542
   0.66665250  0.66667137  0.59229765
   0.16588324  0.16666231  0.64267176
   0.16618451  0.16665728  0.68293916
   0.16588182  0.50000000  0.64267107
   0.16618710  0.50000000  0.68293848
   0.16588324  0.83333769  0.64267176
   0.16618451  0.83334272  0.68293916
   0.50078014  0.16666095  0.64267107
   0.50047635  0.16665983  0.68293850
   0.50078016  0.50000000  0.64266910
   0.50047634  0.50000000  0.68294338
   0.50078014  0.83333905  0.64267107
   0.50047635  0.83334017  0.68293849
Direct configuration=     4
   0.16666667  0.16666667  0.40785113
   0.50000000  0.16666667  0.40785113
   0.83333333  0.16666667  0.40785113
   0.16666667  0.50000000  0.40785113
   0.50000000  0.50000000  0.40785113
   0.83333333  0.50000000  0.40785113
   0.16666667  0.83333333  0.40785113
   0.50000000  0.83333333  0.40785113
   0.83333333  0.83333333  0.40785113
   0.00000000  0.00000000  0.46928371
   0.33333333  0.00000000  0.46928371
   0.66666667  0.00000000  0.46928371
   0.00000000  0.33333333  0.46928371
   0.33333333  0.33333333  0.46928371
   0.66666667  0.33333333  0.46928371
   0.00000000  0.66666667  0.46928371
   0.33333333  0.66666667  0.46928371
   0.66666667  0.66666667  0.46928371
   0.16733639  0.16669602  0.53014065
   0.49937183  0.16670368  0.53014353
   0.83330954  0.16669823  0.53124698
   0.16734286  0.50000000  0.53014338
   0.49937184  0.49999999  0.53015519
   0.83330426  0.50000000  0.53124998
   0.16733639  0.83330398  0.53014065
   0.49937183  0.83329633  0.53014353
   0.83330955  0.83330177  0.53124698
   0.00034569  0.99999999  0.59348424
   0.33326007  0.00000001  0.59381104
   0.66641194  0.00000001  0.59348043
   0.00034693  0.33325712  0.59348094
   0.33330017  0.33329291  0.59380886
   0.66637625  0.33329380  0.59348011
   0.00034694  0.66674289  0.59348094
   0.33330016  0.66670707  0.59380886
   0.66637627  0.66670619  0.59348012
   0.15990558  0.16662227  0.64227804
   0.16252303  0.16657715  0.68265005
   0.15989733  0.50000000  0.64227969
   0.16255166  0.50000000  0.68265106
   0.15990556  0.83337772  0.64227803
   0.16252303  0.83342284  0.68265005
   0.50672476  0.16661634  0.64227925
   0.50408667  0.16659678  0.68265003
   0.50673454  0.49999999  0.64228683
   0.50410020  0.49999999  0.68265333
   0.50672476  0.83338368  0.64227925
   0.50408667  0.83340323  0.68265004
Direct configuration=     5
   0.16666667  0.16666667  0.40785113
   0.50000000  0.16666667  0.40785113
   0.83333333  0.16666667  0.40785113
   0.16666667  0.50000000  0.40785113
   0.50000000  0.50000000  0.40785113
   0.83333333  0.50000000  0.40785113
   0.16666667  0.83333333  0.40785113
   0.50000000  0.83333333  0.40785113
   0.83333333  0.83333333  0.40785113
   0.00000000  0.00000000  0.46928371
   0.33333333  0.00000000  0.46928371
   0.66666667  0.00000000  0.46928371
   0.00000000  0.33333333  0.46928371
   0.33333333  0.33333333  0.46928371
   0.66666667  0.33333333  0.46928371
   0.00000000  0.66666667  0.46928371
   0.33333333  0.66666667  0.46928371
   0.66666667  0.66666667  0.46928371
   0.16911451  0.16677337  0.52862572
   0.49770354  0.16680106  0.52863601
   0.83324664  0.16678200  0.53265487
   0.16913747  0.49999999  0.52863543
   0.49770356  0.49999997  0.52867854
   0.83322831  0.50000001  0.53266575
   0.16911449  0.83322664  0.52862572
   0.49770356  0.83319896  0.52863600
   0.83324664  0.83321800  0.53265488
   0.00132103  0.99999998  0.59704426
   0.33306584  0.00000004  0.59823726
   0.66567819  0.00000002  0.59702882
   0.00132550  0.33305521  0.59703083
   0.33321255  0.33318582  0.59822917
   0.66554749  0.33318932  0.59702751
   0.00132550  0.66694481  0.59703083
   0.33321250  0.66681414  0.59822918
   0.66554757  0.66681066  0.59702752
   0.14197259  0.16650216  0.64109687
   0.15153858  0.16633678  0.68178272
   0.14194386  0.50000001  0.64110556
   0.15164535  0.50000001  0.68178882
   0.14197253  0.83349783  0.64109686
   0.15153858  0.83366321  0.68178273
   0.52455862  0.16648250  0.64110381
   0.51491762  0.16640760  0.68178464
   0.52459768  0.49999995  0.64114001
   0.51497180  0.49999998  0.68178319
   0.52455862  0.83351756  0.64110380
   0.51491761  0.83359241  0.68178467
Direct configuration=     6
   0.16666667  0.16666667  0.40785113
   0.50000000  0.16666667  0.40785113
   0.83333333  0.16666667  0.40785113
   0.16666667  0.50000000  0.40785113
   0.50000000  0.50000000  0.40785113
   0.83333333  0.50000000  0.40785113
   0.16666667  0.83333333  0.40785113
   0.50000000  0.83333333  0.40785113
   0.83333333  0.83333333  0.40785113
   0.00000000  0.00000000  0.46928371
   0.33333333  0.00000000  0.46928371
   0.66666667  0.00000000  0.46928371
   0.00000000  0.33333333  0.46928371
   0.33333333  0.33333333  0.46928371
   0.66666667  0.33333333  0.46928371
   0.00000000  0.66666667  0.46928371
   0.33333333  0.66666667  0.46928371
   0.66666667  0.66666667  0.46928371
   0.16920115  0.16675720  0.52926938
   0.49755035  0.16678306  0.52928316
   0.83325744  0.16678046  0.53351045
   0.16921192  0.50000000  0.52928297
   0.49754578  0.49999998  0.52931192
   0.83322045  0.50000001  0.53352726
   0.16920114  0.83324281  0.52926939
   0.49755036  0.83321696  0.52928318
   0.83325745  0.83321953  0.53351046
   0.00211541  0.99999998  0.59784580
   0.33308299  0.00000002  0.59890182
   0.66483135  0.00000001  0.59784696
   0.00217086  0.33311049  0.59785252
   0.33322039  0.33317465  0.59890379
   0.66470345  0.33319105  0.59786101
   0.00217086  0.66688953  0.59785249
   0.33322037  0.66682533  0.59890379
   0.66470350  0.66680894  0.59786100
   0.13475514  0.16650354  0.64276537
   0.14793215  0.16635581  0.67958233
   0.13475346  0.50000001  0.64277536
   0.14805292  0.50000000  0.67958993
   0.13475511  0.83349645  0.64276545
   0.14793212  0.83364419  0.67958224
   0.53176863  0.16650150  0.64275453
   0.51849228  0.16640700  0.67958879
   0.53185132  0.49999997  0.64267257
   0.51856095  0.49999998  0.67972761
   0.53176856  0.83349854  0.64275470
   0.51849232  0.83359302  0.67958861
Direct configuration=     7
   0.16666667  0.16666667  0.40785113
   0.50000000  0.16666667  0.40785113
   0.83333333  0.16666667  0.40785113
   0.16666667  0.50000000  0.40785113
   0.50000000  0.50000000  0.40785113
   0.83333333  0.50000000  0.40785113
   0.16666667  0.83333333  0.40785113
   0.50000000  0.83333333  0.40785113
   0.83333333  0.83333333  0.40785113
   0.00000000  0.00000000  0.46928371
   0.33333333  0.00000000  0.46928371
   0.66666667  0.00000000  0.46928371
   0.00000000  0.33333333  0.46928371
   0.33333333  0.33333333  0.46928371
   0.66666667  0.33333333  0.46928371
   0.00000000  0.66666667  0.46928371
   0.33333333  0.66666667  0.46928371
   0.66666667  0.66666667  0.46928371
   0.16912869  0.16677072  0.52873104
   0.49767848  0.16679811  0.52874190
   0.83324841  0.16678175  0.53279487
   0.16914966  0.49999999  0.52874138
   0.49767775  0.49999998  0.52878217
   0.83322703  0.50000001  0.53280672
   0.16912867  0.83322929  0.52873104
   0.49767849  0.83320191  0.52874190
   0.83324841  0.83321825  0.53279487
   0.00145101  0.99999998  0.59717541
   0.33306864  0.00000003  0.59834600
   0.66553963  0.00000002  0.59716269
   0.00146382  0.33306426  0.59716527
   0.33321383  0.33318399  0.59833955
   0.66540939  0.33318960  0.59716389
   0.00146382  0.66693577  0.59716528
   0.33321379  0.66681597  0.59833956
   0.66540946  0.66681038  0.59716390
   0.14079164  0.16650239  0.64136987
   0.15094849  0.16633990  0.68142268
   0.14076734  0.50000001  0.64137878
   0.15105754  0.50000000  0.68142903
   0.14079159  0.83349760  0.64136988
   0.15094848  0.83366010  0.68142268
   0.52573835  0.16648560  0.64137391
   0.51550252  0.16640750  0.68142534
   0.52578455  0.49999996  0.64139078
   0.51555907  0.49999998  0.68144685
   0.52573834  0.83351444  0.64137392
   0.51550252  0.83359251  0.68142535
Direct configuration=     8
   0.16666667  0.16666667  0.40785113
   0.50000000  0.16666667  0.40785113
   0.83333333  0.16666667  0.40785113
   0.16666667  0.50000000  0.40785113
   0.50000000  0.50000000  0.40785113
   0.83333333  0.50000000  0.40785113
   0.16666667  0.83333333  0.40785113
   0.50000000  0.83333333  0.40785113
   0.83333333  0.83333333  0.40785113
   0.00000000  0.00000000  0.46928371
   0.33333333  0.00000000  0.46928371
   0.66666667  0.00000000  0.46928371
   0.00000000  0.33333333  0.46928371
   0.33333333  0.33333333  0.46928371
   0.66666667  0.33333333  0.46928371
   0.00000000  0.66666667  0.46928371
   0.33333333  0.66666667  0.46928371
   0.66666667  0.66666667  0.46928371
   0.16890397  0.16674108  0.52977776
   0.49780212  0.16676206  0.52978989
   0.83327043  0.16676567  0.53358340
   0.16890736  0.50000000  0.52979216
   0.49779143  0.49999999  0.52980880
   0.83323016  0.50000000  0.53360198
   0.16890396  0.83325893  0.52977778
   0.49780213  0.83323794  0.52978991
   0.83327043  0.83323433  0.53358342
   0.00215968  0.99999999  0.59746609
   0.33311947  0.00000002  0.59826263
   0.66472143  0.00000001  0.59747838
   0.00223614  0.33316406  0.59748560
   0.33324374  0.33319463  0.59826953
   0.66461506  0.33321301  0.59749947
   0.00223614  0.66683595  0.59748556
   0.33324373  0.66680534  0.59826952
   0.66461510  0.66678698  0.59749946
   0.13452953  0.16650821  0.64138041
   0.14913566  0.16639720  0.68123814
   0.13450881  0.50000001  0.64138620
   0.14925341  0.50000000  0.68124989
   0.13452948  0.83349178  0.64138043
   0.14913564  0.83360280  0.68123812
   0.53199537  0.16654014  0.64136720
   0.51733964  0.16643505  0.68123655
   0.53207221  0.49999998  0.64136083
   0.51740069  0.49999998  0.68128710
   0.53199534  0.83345988  0.64136725
   0.51733965  0.83356496  0.68123650
Direct configuration=     9
   0.16666667  0.16666667  0.40785113
   0.50000000  0.16666667  0.40785113
   0.83333333  0.16666667  0.40785113
   0.16666667  0.50000000  0.40785113
   0.50000000  0.50000000  0.40785113
   0.83333333  0.50000000  0.40785113
   0.16666667  0.83333333  0.40785113
   0.50000000  0.83333333  0.40785113
   0.83333333  0.83333333  0.40785113
   0.00000000  0.00000000  0.46928371
   0.33333333  0.00000000  0.46928371
   0.66666667  0.00000000  0.46928371
   0.00000000  0.33333333  0.46928371
   0.33333333  0.33333333  0.46928371
   0.66666667  0.33333333  0.46928371
   0.00000000  0.66666667  0.46928371
   0.33333333  0.66666667  0.46928371
   0.66666667  0.66666667  0.46928371
   0.16822980  0.16665214  0.53291794
   0.49817305  0.16665391  0.53293386
   0.83333652  0.16671743  0.53594901
   0.16818049  0.50000001  0.53294449
   0.49813247  0.50000003  0.53288866
   0.83323957  0.50000000  0.53598778
   0.16822985  0.83334785  0.53291798
   0.49817304  0.83334605  0.53293393
   0.83333650  0.83328258  0.53594905
   0.00428567  0.00000002  0.59833811
   0.33327195  0.99999998  0.59801250
   0.66226684  0.99999997  0.59842545
   0.00455309  0.33346347  0.59844656
   0.33333346  0.33322655  0.59805946
   0.66223209  0.33328324  0.59850622
   0.00455310  0.66653651  0.59844641
   0.33333354  0.66677348  0.59805940
   0.66223202  0.66671679  0.59850616
   0.11574318  0.16652566  0.64141202
   0.14369717  0.16656912  0.68068453
   0.11573325  0.50000000  0.64140845
   0.14384103  0.49999999  0.68071246
   0.11574315  0.83347433  0.64141207
   0.14369714  0.83343089  0.68068444
   0.55076643  0.16670375  0.64134709
   0.52285102  0.16651769  0.68067017
   0.55093518  0.50000005  0.64127098
   0.52292555  0.49999999  0.68080786
   0.55076637  0.83329620  0.64134722
   0.52285105  0.83348232  0.68066998
Direct configuration=    10
   0.16666667  0.16666667  0.40785113
   0.50000000  0.16666667  0.40785113
   0.83333333  0.16666667  0.40785113
   0.16666667  0.50000000  0.40785113
   0.50000000  0.50000000  0.40785113
   0.83333333  0.50000000  0.40785113
   0.16666667  0.83333333  0.40785113
   0.50000000  0.83333333  0.40785113
   0.83333333  0.83333333  0.40785113
   0.00000000  0.00000000  0.46928371
   0.33333333  0.00000000  0.46928371
   0.66666667  0.00000000  0.46928371
   0.00000000  0.33333333  0.46928371
   0.33333333  0.33333333  0.46928371
   0.66666667  0.33333333  0.46928371
   0.00000000  0.66666667  0.46928371
   0.33333333  0.66666667  0.46928371
   0.66666667  0.66666667  0.46928371
   0.16823462  0.16667640  0.53342070
   0.49814297  0.16669271  0.53343490
   0.83329571  0.16674770  0.53639305
   0.16818426  0.49999999  0.53344604
   0.49805319  0.50000002  0.53338897
   0.83317441  0.49999997  0.53643488
   0.16823468  0.83332362  0.53342073
   0.49814296  0.83330727  0.53343496
   0.83329569  0.83325233  0.53639309
   0.00332059  0.00000002  0.59818062
   0.33328605  0.00000004  0.59730969
   0.66327142  0.99999996  0.59824000
   0.00350377  0.33342103  0.59827639
   0.33338245  0.33326803  0.59737601
   0.66333589  0.33323212  0.59831358
   0.00350388  0.66657895  0.59827628
   0.33338249  0.66673192  0.59737592
   0.66333578  0.66676792  0.59831352
   0.10658253  0.16651972  0.64083248
   0.14344664  0.16656250  0.68243550
   0.10676764  0.50000003  0.64101632
   0.14350223  0.50000003  0.68229434
   0.10658198  0.83348025  0.64083192
   0.14344705  0.83343748  0.68243601
   0.55970750  0.16671322  0.64098537
   0.52319074  0.16649099  0.68219865
   0.55913588  0.50000005  0.64182809
   0.52390245  0.50000003  0.68140750
   0.55970860  0.83328672  0.64098412
   0.52318974  0.83350898  0.68219988
Direct configuration=    11
   0.16666667  0.16666667  0.40785113
   0.50000000  0.16666667  0.40785113
   0.83333333  0.16666667  0.40785113
   0.16666667  0.50000000  0.40785113
   0.50000000  0.50000000  0.40785113
   0.83333333  0.50000000  0.40785113
   0.16666667  0.83333333  0.40785113
   0.50000000  0.83333333  0.40785113
   0.83333333  0.83333333  0.40785113
   0.00000000  0.00000000  0.46928371
   0.33333333  0.00000000  0.46928371
   0.66666667  0.00000000  0.46928371
   0.00000000  0.33333333  0.46928371
   0.33333333  0.33333333  0.46928371
   0.66666667  0.33333333  0.46928371
   0.00000000  0.66666667  0.46928371
   0.33333333  0.66666667  0.46928371
   0.66666667  0.66666667  0.46928371
   0.16823068  0.16665657  0.53300975
   0.49816756  0.16666099  0.53302535
   0.83332907  0.16672296  0.53603010
   0.16818118  0.50000000  0.53303608
   0.49811799  0.50000003  0.53298003
   0.83322768  0.49999999  0.53606943
   0.16823073  0.83334342  0.53300979
   0.49816755  0.83333897  0.53302543
   0.83332905  0.83327705  0.53603014
   0.00410943  0.00000002  0.59830935
   0.33327452  0.99999999  0.59788416
   0.66245029  0.99999997  0.59839159
   0.00436147  0.33345572  0.59841549
   0.33334241  0.33323412  0.59793465
   0.66243366  0.33327390  0.59847104
   0.00436150  0.66654426  0.59841534
   0.33334248  0.66676589  0.59793459
   0.66243358  0.66672613  0.59847098
   0.11407031  0.16652458  0.64130619
   0.14365142  0.16656791  0.68100428
   0.11409600  0.50000001  0.64133684
   0.14377916  0.50000000  0.68100133
   0.11407019  0.83347541  0.64130613
   0.14365147  0.83343210  0.68100430
   0.55239920  0.16670548  0.64128103
   0.52291306  0.16651282  0.68094929
   0.55243275  0.50000005  0.64137272
   0.52310394  0.50000000  0.68091736
   0.55239935  0.83329447  0.64128091
   0.52291290  0.83348719  0.68094936
Direct configuration=    12
   0.16666667  0.16666667  0.40785113
   0.50000000  0.16666667  0.40785113
   0.83333333  0.16666667  0.40785113
   0.16666667  0.50000000  0.40785113
   0.50000000  0.50000000  0.40785113
   0.83333333  0.50000000  0.40785113
   0.16666667  0.83333333  0.40785113
   0.50000000  0.83333333  0.40785113
   0.83333333  0.83333333  0.40785113
   0.00000000  0.00000000  0.46928371
   0.33333333  0.00000000  0.46928371
   0.66666667  0.00000000  0.46928371
   0.00000000  0.33333333  0.46928371
   0.33333333  0.33333333  0.46928371
   0.66666667  0.33333333  0.46928371
   0.00000000  0.66666667  0.46928371
   0.33333333  0.66666667  0.46928371
   0.66666667  0.66666667  0.46928371
   0.16839418  0.16671359  0.53290794
   0.49803772  0.16674426  0.53292438
   0.83325846  0.16677485  0.53603087
   0.16836204  0.49999997  0.53293069
   0.49792818  0.50000000  0.53289995
   0.83312902  0.49999996  0.53607362
   0.16839422  0.83328644  0.53290796
   0.49803771  0.83325574  0.53292442
   0.83325844  0.83322519  0.53603089
   0.00218361  0.00000004  0.59787646
   0.33324390  0.00000002  0.59698517
   0.66451239  0.00000003  0.59790226
   0.00226564  0.33332938  0.59794364
   0.33334222  0.33324366  0.59703814
   0.66459029  0.33323573  0.59795363
   0.00226579  0.66667058  0.59794358
   0.33334225  0.66675631  0.59703807
   0.66459022  0.66676424  0.59795359
   0.10708379  0.16650805  0.64240300
   0.14323211  0.16654547  0.68173284
   0.10722011  0.50000006  0.64246833
   0.14339733  0.50000004  0.68172907
   0.10708361  0.83349190  0.64240287
   0.14323217  0.83345449  0.68173291
   0.55931381  0.16665156  0.64239042
   0.52321728  0.16648189  0.68167858
   0.55928706  0.50000004  0.64262770
   0.52343987  0.50000003  0.68150455
   0.55931407  0.83334840  0.64239012
   0.52321702  0.83351808  0.68167885
Direct configuration=    13
   0.16666667  0.16666667  0.40785113
   0.50000000  0.16666667  0.40785113
   0.83333333  0.16666667  0.40785113
   0.16666667  0.50000000  0.40785113
   0.50000000  0.50000000  0.40785113
   0.83333333  0.50000000  0.40785113
   0.16666667  0.83333333  0.40785113
   0.50000000  0.83333333  0.40785113
   0.83333333  0.83333333  0.40785113
   0.00000000  0.00000000  0.46928371
   0.33333333  0.00000000  0.46928371
   0.66666667  0.00000000  0.46928371
   0.00000000  0.33333333  0.46928371
   0.33333333  0.33333333  0.46928371
   0.66666667  0.33333333  0.46928371
   0.00000000  0.66666667  0.46928371
   0.33333333  0.66666667  0.46928371
   0.66666667  0.66666667  0.46928371
   0.16875266  0.16683860  0.53268473
   0.49775304  0.16692684  0.53270299
   0.83310365  0.16688864  0.53603257
   0.16875861  0.49999990  0.53269963
   0.49751202  0.49999992  0.53272437
   0.83291270  0.49999990  0.53608280
   0.16875270  0.83316151  0.53268469
   0.49775304  0.83307325  0.53270294
   0.83310363  0.83311146  0.53603254
   0.99796110  0.00000007  0.59692732
   0.33317677  0.00000010  0.59501405
   0.66903372  0.00000015  0.59682937
   0.99767035  0.33305237  0.59690908
   0.33334183  0.33326458  0.59507247
   0.66931888  0.33315203  0.59681916
   0.99767077  0.66694756  0.59690922
   0.33334174  0.66673532  0.59507239
   0.66931880  0.66684781  0.59681915
   0.09176527  0.16647180  0.64480785
   0.14231274  0.16649627  0.68333024
   0.09214417  0.50000016  0.64494921
   0.14256013  0.50000014  0.68332470
   0.09176496  0.83352804  0.64480755
   0.14231283  0.83350360  0.68333044
   0.57447465  0.16653333  0.64482285
   0.52388433  0.16641407  0.68327761
   0.57431570  0.50000001  0.64537937
   0.52417641  0.50000011  0.68279202
   0.57447516  0.83346665  0.64482214
   0.52388382  0.83358581  0.68327831
Direct configuration=    14
   0.16666667  0.16666667  0.40785113
   0.50000000  0.16666667  0.40785113
   0.83333333  0.16666667  0.40785113
   0.16666667  0.50000000  0.40785113
   0.50000000  0.50000000  0.40785113
   0.83333333  0.50000000  0.40785113
   0.16666667  0.83333333  0.40785113
   0.50000000  0.83333333  0.40785113
   0.83333333  0.83333333  0.40785113
   0.00000000  0.00000000  0.46928371
   0.33333333  0.00000000  0.46928371
   0.66666667  0.00000000  0.46928371
   0.00000000  0.33333333  0.46928371
   0.33333333  0.33333333  0.46928371
   0.66666667  0.33333333  0.46928371
   0.00000000  0.66666667  0.46928371
   0.33333333  0.66666667  0.46928371
   0.66666667  0.66666667  0.46928371
   0.16874222  0.16685617  0.53260733
   0.49777231  0.16695255  0.53262591
   0.83308787  0.16689802  0.53593900
   0.16875094  0.49999989  0.53262186
   0.49750980  0.49999991  0.53265638
   0.83288638  0.49999990  0.53599101
   0.16874226  0.83314394  0.53260728
   0.49777231  0.83304756  0.53262585
   0.83308786  0.83310208  0.53593897
   0.99751278  0.00000008  0.59686146
   0.33316718  0.00000010  0.59462163
   0.66951469  0.00000018  0.59674812
   0.99717619  0.33302132  0.59683286
   0.33333170  0.33325819  0.59467786
   0.66981625  0.33315322  0.59673029
   0.99717663  0.66697860  0.59683302
   0.33333162  0.66674171  0.59467779
   0.66981619  0.66684660  0.59673028
   0.08923318  0.16647023  0.64551224
   0.14167968  0.16648564  0.68334104
   0.08956812  0.50000017  0.64560424
   0.14202247  0.50000015  0.68339337
   0.08923311  0.83352960  0.64551209
   0.14167952  0.83351421  0.68334107
   0.57701647  0.16650760  0.64550024
   0.52443904  0.16641255  0.68331679
   0.57742348  0.50000001  0.64569346
   0.52418478  0.50000011  0.68320632
   0.57701630  0.83349238  0.64549998
   0.52443918  0.83358733  0.68331703
Direct configuration=    15
   0.16666667  0.16666667  0.40785113
   0.50000000  0.16666667  0.40785113
   0.83333333  0.16666667  0.40785113
   0.16666667  0.50000000  0.40785113
   0.50000000  0.50000000  0.40785113
   0.83333333  0.50000000  0.40785113
   0.16666667  0.83333333  0.40785113
   0.50000000  0.83333333  0.40785113
   0.83333333  0.83333333  0.40785113
   0.00000000  0.00000000  0.46928371
   0.33333333  0.00000000  0.46928371
   0.66666667  0.00000000  0.46928371
   0.00000000  0.33333333  0.46928371
   0.33333333  0.33333333  0.46928371
   0.66666667  0.33333333  0.46928371
   0.00000000  0.66666667  0.46928371
   0.33333333  0.66666667  0.46928371
   0.66666667  0.66666667  0.46928371
   0.16873544  0.16686760  0.53255699
   0.49778484  0.16696927  0.53257578
   0.83307761  0.16690413  0.53587815
   0.16874596  0.49999988  0.53257128
   0.49750836  0.49999990  0.53261215
   0.83286927  0.49999990  0.53593130
   0.16873546  0.83313252  0.53255694
   0.49778484  0.83303085  0.53257571
   0.83307760  0.83309597  0.53587812
   0.99722121  0.00000009  0.59681863
   0.33316094  0.00000010  0.59436641
   0.66982749  0.00000019  0.59669527
   0.99685480  0.33300113  0.59678329
   0.33332512  0.33325403  0.59442123
   0.67013973  0.33315399  0.59667248
   0.99685526  0.66699879  0.59678346
   0.33332503  0.66674587  0.59442116
   0.67013968  0.66684581  0.59667248
   0.08758639  0.16646921  0.64597035
   0.14126795  0.16647873  0.68334807
   0.08789274  0.50000018  0.64603025
   0.14167279  0.50000016  0.68343802
   0.08758648  0.83353061  0.64597030
   0.14126764  0.83352111  0.68334798
   0.57866958  0.16649086  0.64594080
   0.52479981  0.16641156  0.68334227
   0.57944468  0.50000001  0.64589774
   0.52419023  0.50000012  0.68347576
   0.57866896  0.83350912  0.64594083
   0.52480037  0.83358832  0.68334221
Direct configuration=    16
   0.16666667  0.16666667  0.40785113
   0.50000000  0.16666667  0.40785113
   0.83333333  0.16666667  0.40785113
   0.16666667  0.50000000  0.40785113
   0.50000000  0.50000000  0.40785113
   0.83333333  0.50000000  0.40785113
   0.16666667  0.83333333  0.40785113
   0.50000000  0.83333333  0.40785113
   0.83333333  0.83333333  0.40785113
   0.00000000  0.00000000  0.46928371
   0.33333333  0.00000000  0.46928371
   0.66666667  0.00000000  0.46928371
   0.00000000  0.33333333  0.46928371
   0.33333333  0.33333333  0.46928371
   0.66666667  0.33333333  0.46928371
   0.00000000  0.66666667  0.46928371
   0.33333333  0.66666667  0.46928371
   0.66666667  0.66666667  0.46928371
   0.16862571  0.16686592  0.53249730
   0.49789362  0.16696641  0.53251508
   0.83308552  0.16689312  0.53574295
   0.16862988  0.49999988  0.53251217
   0.49761247  0.49999990  0.53255299
   0.83287978  0.49999991  0.53579526
   0.16862574  0.83313420  0.53249724
   0.49789362  0.83303370  0.53251502
   0.83308552  0.83310697  0.53574292
   0.99747893  0.00000009  0.59693240
   0.33316647  0.00000009  0.59418881
   0.66955155  0.00000019  0.59681311
   0.99712617  0.33301151  0.59689997
   0.33332509  0.33325447  0.59424552
   0.66984975  0.33316123  0.59679437
   0.99712660  0.66698841  0.59690013
   0.33332501  0.66674544  0.59424545
   0.66984971  0.66683858  0.59679436
   0.08654887  0.16647163  0.64610751
   0.14100529  0.16647024  0.68341879
   0.08686209  0.50000017  0.64616744
   0.14141258  0.50000015  0.68350514
   0.08654897  0.83352820  0.64610748
   0.14100497  0.83352962  0.68341870
   0.57968842  0.16649057  0.64608869
   0.52506478  0.16641611  0.68339977
   0.58041261  0.50000001  0.64607216
   0.52450833  0.50000011  0.68350624
   0.57968776  0.83350942  0.64608876
   0.52506538  0.83358377  0.68339966
Direct configuration=    17