  18  18   1   0
  0.4084014E+02  0.5278552E-09  0.5278552E-09  0.3046488E-08  0.5000000E-15
   1.0000000000000000E-004
  CAR 
 Cu-Ag alloy CO adsorption (RPBE, matches
      7.17884612    -25.73455860  301     -1.02991199      1.00000000
    -25.735  0.0000E+00  0.0000E+00
    -25.625  0.0000E+00  0.0000E+00
    -25.515  0.0000E+00  0.0000E+00
    -25.405  0.0000E+00  0.0000E+00
    -25.296  0.0000E+00  0.0000E+00
    -25.186  0.0000E+00  0.0000E+00
    -25.076  0.0000E+00  0.0000E+00
    -24.967  0.0000E+00  0.0000E+00
    -24.857  0.0000E+00  0.0000E+00
    -24.747  0.2779E-13  0.3049E-14
    -24.637  0.7452E-09  0.8176E-10
    -24.528  0.1922E-05  0.2109E-06
    -24.418  0.4980E-03  0.5485E-04
    -24.308  0.1414E-01  0.1606E-02
    -24.199  0.5027E-01  0.7121E-02
    -24.089  0.2466E-01  0.9826E-02
    -23.979  0.1573E-02  0.9999E-02
    -23.869  0.1137E-04  0.1000E-01
    -23.760  0.8418E-08  0.1000E-01
    -23.650  0.6049E-12  0.1000E-01
    -23.540  0.0000E+00  0.1000E-01
    -23.431  0.0000E+00  0.1000E-01
    -23.321  0.0000E+00  0.1000E-01
    -23.211  0.0000E+00  0.1000E-01
    -23.101  0.0000E+00  0.1000E-01
    -22.992  0.0000E+00  0.1000E-01
    -22.882  0.0000E+00  0.1000E-01
    -22.772  0.0000E+00  0.1000E-01
    -22.663  0.0000E+00  0.1000E-01
    -22.553  0.0000E+00  0.1000E-01
    -22.443  0.0000E+00  0.1000E-01
    -22.334  0.0000E+00  0.1000E-01
    -22.224  0.0000E+00  0.1000E-01
    -22.114  0.0000E+00  0.1000E-01
    -22.004  0.0000E+00  0.1000E-01
    -21.895  0.0000E+00  0.1000E-01
    -21.785  0.0000E+00  0.1000E-01
    -21.675  0.0000E+00  0.1000E-01
    -21.566  0.0000E+00  0.1000E-01
    -21.456  0.0000E+00  0.1000E-01
    -21.346  0.0000E+00  0.1000E-01
    -21.236  0.0000E+00  0.1000E-01
    -21.127  0.0000E+00  0.1000E-01
    -21.017  0.0000E+00  0.1000E-01
    -20.907  0.0000E+00  0.1000E-01
    -20.798  0.0000E+00  0.1000E-01
    -20.688  0.0000E+00  0.1000E-01
    -20.578  0.0000E+00  0.1000E-01
    -20.468  0.0000E+00  0.1000E-01
    -20.359  0.0000E+00  0.1000E-01
    -20.249  0.0000E+00  0.1000E-01
    -20.139  0.0000E+00  0.1000E-01
    -20.030  0.0000E+00  0.1000E-01
    -19.920  0.0000E+00  0.1000E-01
    -19.810  0.0000E+00  0.1000E-01
    -19.700  0.0000E+00  0.1000E-01
    -19.591  0.0000E+00  0.1000E-01
    -19.481  0.0000E+00  0.1000E-01
    -19.371  0.0000E+00  0.1000E-01
    -19.262  0.0000E+00  0.1000E-01
    -19.152  0.0000E+00  0.1000E-01
    -19.042  0.0000E+00  0.1000E-01
    -18.932  0.0000E+00  0.1000E-01
    -18.823  0.0000E+00  0.1000E-01
    -18.713  0.0000E+00  0.1000E-01
    -18.603  0.0000E+00  0.1000E-01
    -18.494  0.0000E+00  0.1000E-01
    -18.384  0.0000E+00  0.1000E-01
    -18.274  0.0000E+00  0.1000E-01
    -18.164  0.0000E+00  0.1000E-01
    -18.055  0.0000E+00  0.1000E-01
    -17.945  0.0000E+00  0.1000E-01
    -17.835  0.0000E+00  0.1000E-01
    -17.726  0.0000E+00  0.1000E-01
    -17.616  0.0000E+00  0.1000E-01
    -17.506  0.0000E+00  0.1000E-01
    -17.396  0.0000E+00  0.1000E-01
    -17.287  0.0000E+00  0.1000E-01
    -17.177  0.0000E+00  0.1000E-01
    -17.067  0.0000E+00  0.1000E-01
    -16.958  0.0000E+00  0.1000E-01
    -16.848  0.0000E+00  0.1000E-01
    -16.738  0.0000E+00  0.1000E-01
    -16.629  0.0000E+00  0.1000E-01
    -16.519  0.0000E+00  0.1000E-01
    -16.409  0.0000E+00  0.1000E-01
    -16.299  0.0000E+00  0.1000E-01
    -16.190  0.0000E+00  0.1000E-01
    -16.080  0.0000E+00  0.1000E-01
    -15.970  0.0000E+00  0.1000E-01
    -15.861  0.0000E+00  0.1000E-01
    -15.751  0.0000E+00  0.1000E-01
    -15.641  0.0000E+00  0.1000E-01
    -15.531  0.0000E+00  0.1000E-01
    -15.422  0.0000E+00  0.1000E-01
    -15.312  0.0000E+00  0.1000E-01
    -15.202  0.0000E+00  0.1000E-01
    -15.093  0.0000E+00  0.1000E-01
    -14.983  0.0000E+00  0.1000E-01
    -14.873  0.0000E+00  0.1000E-01
    -14.763  0.0000E+00  0.1000E-01
    -14.654  0.0000E+00  0.1000E-01
    -14.544  0.0000E+00  0.1000E-01
    -14.434  0.0000E+00  0.1000E-01
    -14.325  0.0000E+00  0.1000E-01
    -14.215  0.0000E+00  0.1000E-01
    -14.105  0.0000E+00  0.1000E-01
    -13.995  0.0000E+00  0.1000E-01
    -13.886  0.0000E+00  0.1000E-01
    -13.776  0.0000E+00  0.1000E-01
    -13.666  0.0000E+00  0.1000E-01
    -13.557  0.0000E+00  0.1000E-01
    -13.447  0.0000E+00  0.1000E-01
    -13.337  0.0000E+00  0.1000E-01
    -13.227  0.0000E+00  0.1000E-01
    -13.118  0.0000E+00  0.1000E-01
    -13.008  0.0000E+00  0.1000E-01
    -12.898  0.0000E+00  0.1000E-01
    -12.789  0.0000E+00  0.1000E-01
    -12.679  0.0000E+00  0.1000E-01
    -12.569  0.0000E+00  0.1000E-01
    -12.459  0.0000E+00  0.1000E-01
    -12.350  0.0000E+00  0.1000E-01
    -12.240  0.0000E+00  0.1000E-01
    -12.130  0.0000E+00  0.1000E-01
    -12.021  0.0000E+00  0.1000E-01
    -11.911  0.0000E+00  0.1000E-01
    -11.801  0.0000E+00  0.1000E-01
    -11.692  0.8317E-15  0.1000E-01
    -11.582  0.2615E-10  0.1000E-01
    -11.472  0.8092E-07  0.1000E-01
    -11.362  0.2776E-04  0.1000E-01
    -11.253  0.1413E-02  0.1016E-01
    -11.143  0.1562E-01  0.1187E-01
    -11.033  0.4351E-01  0.1665E-01
    -10.924  0.2747E-01  0.1966E-01
    -10.814  0.3056E-02  0.2000E-01
    -10.704  0.4503E-04  0.2000E-01
    -10.594  0.7243E-07  0.2000E-01
    -10.485  0.1160E-10  0.2000E-01
    -10.375  0.1771E-15  0.2000E-01
    -10.265  0.0000E+00  0.2000E-01
    -10.156  0.0000E+00  0.2000E-01
    -10.046  0.0000E+00  0.2000E-01
     -9.936  0.0000E+00  0.2000E-01
     -9.826  0.1265E-17  0.2000E-01
     -9.717  0.1392E-12  0.2000E-01
     -9.607  0.1451E-08  0.2000E-01
     -9.497  0.1474E-05  0.2000E-01
     -9.388  0.1549E-03  0.2002E-01
     -9.278  0.1874E-02  0.2022E-01
     -9.168  0.2992E-02  0.2055E-01
     -9.058  0.6665E-03  0.2062E-01
     -8.949  0.1036E-02  0.2074E-01
     -8.839  0.1167E-01  0.2202E-01
     -8.729  0.1771E-01  0.2396E-01
     -8.620  0.3704E-02  0.2437E-01
     -8.510  0.7660E-03  0.2445E-01
     -8.400  0.3251E-02  0.2481E-01
     -8.290  0.9147E-02  0.2581E-01
     -8.181  0.3451E-01  0.2960E-01
     -8.071  0.3454E-01  0.3339E-01
     -7.961  0.1135E-01  0.3463E-01
     -7.852  0.2103E-01  0.3694E-01
     -7.742  0.3107E-01  0.4035E-01
     -7.632  0.5533E-01  0.4642E-01
     -7.522  0.9097E-01  0.5640E-01
     -7.413  0.6038E-01  0.6302E-01
     -7.303  0.2672E-01  0.6595E-01
     -7.193  0.1481E-01  0.6758E-01
     -7.084  0.4525E-01  0.7254E-01
     -6.974  0.8618E-01  0.8200E-01
     -6.864  0.1016E+00  0.9315E-01
     -6.754  0.9307E-01  0.1034E+00
     -6.645  0.7884E-01  0.1120E+00
     -6.535  0.8871E-01  0.1217E+00
     -6.425  0.1030E+00  0.1330E+00
     -6.316  0.1098E+00  0.1451E+00
     -6.206  0.1283E+00  0.1592E+00
     -6.096  0.1333E+00  0.1738E+00
     -5.987  0.1223E+00  0.1872E+00
     -5.877  0.1354E+00  0.2021E+00
     -5.767  0.1060E+00  0.2137E+00
     -5.657  0.8561E-01  0.2231E+00
     -5.548  0.1075E+00  0.2349E+00
     -5.438  0.1242E+00  0.2485E+00
     -5.328  0.1255E+00  0.2623E+00
     -5.219  0.8235E-01  0.2713E+00
     -5.109  0.5860E-01  0.2777E+00
     -4.999  0.7492E-01  0.2860E+00
     -4.889  0.8358E-01  0.2951E+00
     -4.780  0.8463E-01  0.3044E+00
     -4.670  0.1086E+00  0.3163E+00
     -4.560  0.1147E+00  0.3289E+00
     -4.451  0.9768E-01  0.3396E+00
     -4.341  0.1353E+00  0.3545E+00
     -4.231  0.1939E+00  0.3757E+00
     -4.121  0.2366E+00  0.4017E+00
     -4.012  0.2744E+00  0.4318E+00
     -3.902  0.2861E+00  0.4632E+00
     -3.792  0.2948E+00  0.4955E+00
     -3.683  0.3024E+00  0.5287E+00
     -3.573  0.2929E+00  0.5608E+00
     -3.463  0.2793E+00  0.5915E+00
     -3.353  0.2710E+00  0.6212E+00
     -3.244  0.2964E+00  0.6537E+00
     -3.134  0.3193E+00  0.6888E+00
     -3.024  0.3249E+00  0.7244E+00
     -2.915  0.3406E+00  0.7618E+00
     -2.805  0.3307E+00  0.7981E+00
     -2.695  0.3247E+00  0.8337E+00
     -2.585  0.2713E+00  0.8634E+00
     -2.476  0.1786E+00  0.8830E+00
     -2.366  0.9949E-01  0.8940E+00
     -2.256  0.3303E-01  0.8976E+00
     -2.147  0.2287E-01  0.9001E+00
     -2.037  0.1861E-01  0.9021E+00
     -1.927  0.5995E-02  0.9028E+00
     -1.817  0.1803E-01  0.9048E+00
     -1.708  0.1699E-01  0.9066E+00
     -1.598  0.4222E-02  0.9071E+00
     -1.488  0.1318E-01  0.9085E+00
     -1.379  0.3044E-01  0.9119E+00
     -1.269  0.3456E-01  0.9157E+00
     -1.159  0.4593E-01  0.9207E+00
     -1.050  0.7437E-01  0.9289E+00
     -0.940  0.3628E-01  0.9328E+00
     -0.830  0.2338E-01  0.9354E+00
     -0.720  0.4385E-01  0.9402E+00
     -0.611  0.2726E-01  0.9432E+00
     -0.501  0.1620E-01  0.9450E+00
     -0.391  0.2252E-01  0.9475E+00
     -0.282  0.3071E-01  0.9508E+00
     -0.172  0.9564E-02  0.9519E+00
     -0.062  0.8274E-02  0.9528E+00
      0.048  0.2212E-01  0.9552E+00
      0.157  0.3217E-01  0.9587E+00
      0.267  0.4933E-01  0.9642E+00
      0.377  0.3924E-01  0.9685E+00
      0.486  0.2729E-01  0.9715E+00
      0.596  0.2453E-01  0.9741E+00
      0.706  0.3223E-01  0.9777E+00
      0.816  0.2917E-01  0.9809E+00
      0.925  0.8583E-02  0.9818E+00
      1.035  0.9999E-03  0.9819E+00
      1.145  0.5653E-02  0.9826E+00
      1.254  0.1233E-01  0.9839E+00
      1.364  0.2896E-01  0.9871E+00
      1.474  0.4949E-01  0.9925E+00
      1.584  0.4760E-01  0.9977E+00
      1.693  0.3904E-01  0.1002E+01
      1.803  0.2789E-01  0.1005E+01
      1.913  0.1666E-01  0.1007E+01
      2.022  0.1902E-01  0.1009E+01
      2.132  0.4102E-01  0.1013E+01
      2.242  0.3292E-01  0.1017E+01
      2.352  0.1868E-01  0.1019E+01
      2.461  0.1424E-01  0.1021E+01
      2.571  0.2440E-01  0.1023E+01
      2.681  0.2006E-01  0.1026E+01
      2.790  0.2341E-01  0.1028E+01
      2.900  0.1954E-01  0.1030E+01
      3.010  0.1951E-01  0.1032E+01
      3.120  0.3665E-01  0.1036E+01
      3.229  0.2419E-01  0.1039E+01
      3.339  0.9083E-02  0.1040E+01
      3.449  0.1625E-01  0.1042E+01
      3.558  0.2075E-01  0.1044E+01
      3.668  0.1977E-01  0.1046E+01
      3.778  0.2852E-01  0.1049E+01
      3.888  0.4287E-01  0.1054E+01
      3.997  0.4894E-01  0.1060E+01
      4.107  0.5248E-01  0.1065E+01
      4.217  0.4402E-01  0.1070E+01
      4.326  0.3494E-01  0.1074E+01
      4.436  0.2049E-01  0.1076E+01
      4.546  0.2385E-01  0.1079E+01
      4.655  0.4186E-01  0.1083E+01
      4.765  0.3283E-01  0.1087E+01
      4.875  0.3372E-01  0.1091E+01
      4.985  0.3041E-01  0.1094E+01
      5.094  0.8929E-02  0.1095E+01
      5.204  0.1391E-01  0.1097E+01
      5.314  0.4628E-01  0.1102E+01
      5.423  0.4696E-01  0.1107E+01
      5.533  0.1560E-01  0.1109E+01
      5.643  0.7832E-02  0.1109E+01
      5.753  0.4717E-02  0.1110E+01
      5.862  0.9547E-03  0.1110E+01
      5.972  0.3188E-04  0.1110E+01
      6.082  0.1228E-06  0.1110E+01
      6.191  0.4788E-10  0.1110E+01
      6.301  0.1798E-14  0.1110E+01
      6.411  0.0000E+00  0.1110E+01
      6.521  0.0000E+00  0.1110E+01
      6.630  0.0000E+00  0.1110E+01
      6.740  0.0000E+00  0.1110E+01
      6.850  0.0000E+00  0.1110E+01
      6.959  0.0000E+00  0.1110E+01
      7.069  0.0000E+00  0.1110E+01
      7.179  0.0000E+00  0.1110E+01
      7.17884612    -25.73455860  301     -1.02991199      1.00000000
    -25.735  0.0000E+00  0.0000E+00  0.0000E+00  0.0000E+00  0.0000E+00  0.0000E+00  0.0000E+00  0.0000E+00  0.0000E+00
    -25.625  0.0000E+00  0.0000E+00  0.0000E+00  0.0000E+00  0.0000E+00  0.0000E+00  0.0000E+00  0.0000E+00  0.0000E+00
    -25.515  0.0000E+00  0.0000E+00  0.0000E+00  0.0000E+00  0.0000E+00  0.0000E+00  0.0000E+00  0.0000E+00  0.0000E+00
    -25.405  0.0000E+00  0.0000E+00  0.0000E+00  0.0000E+00  0.0000E+00  0.0000E+00  0.0000E+00  0.0000E+00  0.0000E+00
    -25.296  0.0000E+00  0.0000E+00  0.0000E+00  0.0000E+00  0.0000E+00  0.0000E+00  0.0000E+00  0.0000E+00  0.0000E+00
    -25.186  0.0000E+00  0.0000E+00  0.0000E+00  0.0000E+00  0.0000E+00  0.0000E+00  0.0000E+00  0.0000E+00  0.0000E+00
    -25.076  0.0000E+00  0.0000E+00  0.0000E+00  0.0000E+00  0.0000E+00  0.0000E+00  0.0000E+00  0.0000E+00  0.0000E+00
    -24.967  0.0000E+00  0.0000E+00  0.0000E+00  0.0000E+00  0.0000E+00  0.0000E+00  0.0000E+00  0.0000E+00  0.0000E+00
    -24.857  0.0000E+00  0.0000E+00  0.0000E+00  0.0000E+00  0.0000E+00  0.0000E+00  0.0000E+00  0.0000E+00  0.0000E+00
    -24.747  0.1568E-22  0.6420E-22  0.2685E-21  0.1065E-21  0.1708E-23  0.4918E-23  0.3291E-23  0.5322E-23  0.2020E-23
    -24.637  0.4195E-18  0.1724E-17  0.7180E-17  0.2861E-17  0.4573E-19  0.1319E-18  0.8821E-19  0.1427E-18  0.5418E-19
    -24.528  0.1079E-14  0.4453E-14  0.1846E-13  0.7390E-14  0.1178E-15  0.3403E-15  0.2274E-15  0.3679E-15  0.1397E-15
    -24.418  0.2789E-12  0.1156E-11  0.4771E-11  0.1918E-11  0.3048E-13  0.8822E-13  0.5889E-13  0.9535E-13  0.3621E-13
    -24.308  0.7898E-11  0.3285E-10  0.1351E-09  0.5452E-10  0.8642E-12  0.2505E-11  0.1671E-11  0.2706E-11  0.1028E-11
    -24.199  0.2802E-10  0.1170E-09  0.4791E-09  0.1941E-09  0.3070E-11  0.8909E-11  0.5939E-11  0.9621E-11  0.3655E-11
    -24.089  0.1372E-10  0.5744E-10  0.2344E-09  0.9535E-10  0.1504E-11  0.4371E-11  0.2912E-11  0.4719E-11  0.1793E-11
    -23.979  0.8731E-12  0.3670E-11  0.1492E-10  0.6092E-11  0.9586E-13  0.2790E-12  0.1857E-12  0.3011E-12  0.1144E-12
    -23.869  0.6295E-14  0.2656E-13  0.1075E-12  0.4410E-13  0.6920E-15  0.2017E-14  0.1342E-14  0.2176E-14  0.8270E-15
    -23.760  0.4647E-17  0.1969E-16  0.7936E-16  0.3269E-16  0.5116E-18  0.1493E-17  0.9926E-18  0.1610E-17  0.6121E-18
    -23.650  0.3331E-21  0.1417E-20  0.5685E-20  0.2353E-20  0.3671E-22  0.1073E-21  0.7128E-22  0.1157E-21  0.4399E-22
    -23.540  0.0000E+00  0.0000E+00  0.0000E+00  0.0000E+00  0.0000E+00  0.0000E+00  0.0000E+00  0.0000E+00  0.0000E+00
    -23.431  0.0000E+00  0.0000E+00  0.0000E+00  0.0000E+00  0.0000E+00  0.0000E+00  0.0000E+00  0.0000E+00  0.0000E+00
    -23.321  0.0000E+00  0.0000E+00  0.0000E+00  0.0000E+00  0.0000E+00  0.0000E+00  0.0000E+00  0.0000E+00  0.0000E+00
    -23.211  0.0000E+00  0.0000E+00  0.0000E+00  0.0000E+00  0.0000E+00  0.0000E+00  0.0000E+00  0.0000E+00  0.0000E+00
    -23.101  0.0000E+00  0.0000E+00  0.0000E+00  0.0000E+00  0.0000E+00  0.0000E+00  0.0000E+00  0.0000E+00  0.0000E+00
    -22.992  0.0000E+00  0.0000E+00  0.0000E+00  0.0000E+00  0.0000E+00  0.0000E+00  0.0000E+00  0.0000E+00  0.0000E+00
    -22.882  0.0000E+00  0.0000E+00  0.0000E+00  0.0000E+00  0.0000E+00  0.0000E+00  0.0000E+00  0.0000E+00  0.0000E+00
    -22.772  0.0000E+00  0.0000E+00  0.0000E+00  0.0000E+00  0.0000E+00  0.0000E+00  0.0000E+00  0.0000E+00  0.0000E+00
    -22.663  0.0000E+00  0.0000E+00  0.0000E+00  0.0000E+00  0.0000E+00  0.0000E+00  0.0000E+00  0.0000E+00  0.0000E+00
    -22.553  0.0000E+00  0.0000E+00  0.0000E+00  0.0000E+00  0.0000E+00  0.0000E+00  0.0000E+00  0.0000E+00  0.0000E+00
    -22.443  0.0000E+00  0.0000E+00  0.0000E+00  0.0000E+00  0.0000E+00  0.0000E+00  0.0000E+00  0.0000E+00  0.0000E+00
    -22.334  0.0000E+00  0.0000E+00  0.0000E+00  0.0000E+00  0.0000E+00  0.0000E+00  0.0000E+00  0.0000E+00  0.0000E+00
    -22.224  0.0000E+00  0.0000E+00  0.0000E+00  0.0000E+00  0.0000E+00  0.0000E+00  0.0000E+00  0.0000E+00  0.0000E+00
    -22.114  0.0000E+00  0.0000E+00  0.0000E+00  0.0000E+00  0.0000E+00  0.0000E+00  0.0000E+00  0.0000E+00  0.0000E+00
    -22.004  0.0000E+00  0.0000E+00  0.0000E+00  0.0000E+00  0.0000E+00  0.0000E+00  0.0000E+00  0.0000E+00  0.0000E+00
    -21.895  0.0000E+00  0.0000E+00  0.0000E+00  0.0000E+00  0.0000E+00  0.0000E+00  0.0000E+00  0.0000E+00  0.0000E+00
    -21.785  0.0000E+00  0.0000E+00  0.0000E+00  0.0000E+00  0.0000E+00  0.0000E+00  0.0000E+00  0.0000E+00  0.0000E+00
    -21.675  0.0000E+00  0.0000E+00  0.0000E+00  0.0000E+00  0.0000E+00  0.0000E+00  0.0000E+00  0.0000E+00  0.0000E+00
    -21.566  0.0000E+00  0.0000E+00  0.0000E+00  0.0000E+00  0.0000E+00  0.0000E+00  0.0000E+00  0.0000E+00  0.0000E+00
    -21.456  0.0000E+00  0.0000E+00  0.0000E+00  0.0000E+00  0.0000E+00  0.0000E+00  0.0000E+00  0.0000E+00  0.0000E+00
    -21.346  0.0000E+00  0.0000E+00  0.0000E+00  0.0000E+00  0.0000E+00  0.0000E+00  0.0000E+00  0.0000E+00  0.0000E+00
    -21.236  0.0000E+00  0.0000E+00  0.0000E+00  0.0000E+00  0.0000E+00  0.0000E+00  0.0000E+00  0.0000E+00  0.0000E+00
    -21.127  0.0000E+00  0.0000E+00  0.0000E+00  0.0000E+00  0.0000E+00  0.0000E+00  0.0000E+00  0.0000E+00  0.0000E+00
    -21.017  0.0000E+00  0.0000E+00  0.0000E+00  0.0000E+00  0.0000E+00  0.0000E+00  0.0000E+00  0.0000E+00  0.0000E+00
    -20.907  0.0000E+00  0.0000E+00  0.0000E+00  0.0000E+00  0.0000E+00  0.0000E+00  0.0000E+00  0.0000E+00  0.0000E+00
    -20.798  0.0000E+00  0.0000E+00  0.0000E+00  0.0000E+00  0.0000E+00  0.0000E+00  0.0000E+00  0.0000E+00  0.0000E+00
    -20.688  0.0000E+00  0.0000E+00  0.0000E+00  0.0000E+00  0.0000E+00  0.0000E+00  0.0000E+00  0.0000E+00  0.0000E+00
    -20.578  0.0000E+00  0.0000E+00  0.0000E+00  0.0000E+00  0.0000E+00  0.0000E+00  0.0000E+00  0.0000E+00  0.0000E+00
    -20.468  0.0000E+00  0.0000E+00  0.0000E+00  0.0000E+00  0.0000E+00  0.0000E+00  0.0000E+00  0.0000E+00  0.0000E+00
    -20.359  0.0000E+00  0.0000E+00  0.0000E+00  0.0000E+00  0.0000E+00  0.0000E+00  0.0000E+00  0.0000E+00  0.0000E+00
    -20.249  0.0000E+00  0.0000E+00  0.0000E+00  0.0000E+00  0.0000E+00  0.0000E+00  0.0000E+00  0.0000E+00  0.0000E+00
    -20.139  0.0000E+00  0.0000E+00  0.0000E+00  0.0000E+00  0.0000E+00  0.0000E+00  0.0000E+00  0.0000E+00  0.0000E+00
    -20.030  0.0000E+00  0.0000E+00  0.0000E+00  0.0000E+00  0.0000E+00  0.0000E+00  0.0000E+00  0.0000E+00  0.0000E+00
    -19.920  0.0000E+00  0.0000E+00  0.0000E+00  0.0000E+00  0.0000E+00  0.0000E+00  0.0000E+00  0.0000E+00  0.0000E+00
    -19.810  0.0000E+00  0.0000E+00  0.0000E+00  0.0000E+00  0.0000E+00  0.0000E+00  0.0000E+00  0.0000E+00  0.0000E+00
    -19.700  0.0000E+00  0.0000E+00  0.0000E+00  0.0000E+00  0.0000E+00  0.0000E+00  0.0000E+00  0.0000E+00  0.0000E+00
    -19.591  0.0000E+00  0.0000E+00  0.0000E+00  0.0000E+00  0.0000E+00  0.0000E+00  0.0000E+00  0.0000E+00  0.0000E+00
    -19.481  0.0000E+00  0.0000E+00  0.0000E+00  0.0000E+00  0.0000E+00  0.0000E+00  0.0000E+00  0.0000E+00  0.0000E+00
    -19.371  0.0000E+00  0.0000E+00  0.0000E+00  0.0000E+00  0.0000E+00  0.0000E+00  0.0000E+00  0.0000E+00  0.0000E+00
    -19.262  0.0000E+00  0.0000E+00  0.0000E+00  0.0000E+00  0.0000E+00  0.0000E+00  0.0000E+00  0.0000E+00  0.0000E+00
    -19.152  0.0000E+00  0.0000E+00  0.0000E+00  0.0000E+00  0.0000E+00  0.0000E+00  0.0000E+00  0.0000E+00  0.0000E+00
    -19.042  0.0000E+00  0.0000E+00  0.0000E+00  0.0000E+00  0.0000E+00  0.0000E+00  0.0000E+00  0.0000E+00  0.0000E+00
    -18.932  0.0000E+00  0.0000E+00  0.0000E+00  0.0000E+00  0.0000E+00  0.0000E+00  0.0000E+00  0.0000E+00  0.0000E+00
    -18.823  0.0000E+00  0.0000E+00  0.0000E+00  0.0000E+00  0.0000E+00  0.0000E+00  0.0000E+00  0.0000E+00  0.0000E+00
    -18.713  0.0000E+00  0.0000E+00  0.0000E+00  0.0000E+00  0.0000E+00  0.0000E+00  0.0000E+00  0.0000E+00  0.0000E+00
    -18.603  0.0000E+00  0.0000E+00  0.0000E+00  0.0000E+00  0.0000E+00  0.0000E+00  0.0000E+00  0.0000E+00  0.0000E+00
    -18.494  0.0000E+00  0.0000E+00  0.0000E+00  0.0000E+00  0.0000E+00  0.0000E+00  0.0000E+00  0.0000E+00  0.0000E+00
    -18.384  0.0000E+00  0.0000E+00  0.0000E+00  0.0000E+00  0.0000E+00  0.0000E+00  0.0000E+00  0.0000E+00  0.0000E+00
    -18.274  0.0000E+00  0.0000E+00  0.0000E+00  0.0000E+00  0.0000E+00  0.0000E+00  0.0000E+00  0.0000E+00  0.0000E+00
    -18.164  0.0000E+00  0.0000E+00  0.0000E+00  0.0000E+00  0.0000E+00  0.0000E+00  0.0000E+00  0.0000E+00  0.0000E+00
    -18.055  0.0000E+00  0.0000E+00  0.0000E+00  0.0000E+00  0.0000E+00  0.0000E+00  0.0000E+00  0.0000E+00  0.0000E+00
    -17.945  0.0000E+00  0.0000E+00  0.0000E+00  0.0000E+00  0.0000E+00  0.0000E+00  0.0000E+00  0.0000E+00  0.0000E+00
    -17.835  0.0000E+00  0.0000E+00  0.0000E+00  0.0000E+00  0.0000E+00  0.0000E+00  0.0000E+00  0.0000E+00  0.0000E+00
    -17.726  0.0000E+00  0.0000E+00  0.0000E+00  0.0000E+00  0.0000E+00  0.0000E+00  0.0000E+00  0.0000E+00  0.0000E+00
    -17.616  0.0000E+00  0.0000E+00  0.0000E+00  0.0000E+00  0.0000E+00  0.0000E+00  0.0000E+00  0.0000E+00  0.0000E+00
    -17.506  0.0000E+00  0.0000E+00  0.0000E+00  0.0000E+00  0.0000E+00  0.0000E+00  0.0000E+00  0.0000E+00  0.0000E+00
    -17.396  0.0000E+00  0.0000E+00  0.0000E+00  0.0000E+00  0.0000E+00  0.0000E+00  0.0000E+00  0.0000E+00  0.0000E+00
    -17.287  0.0000E+00  0.0000E+00  0.0000E+00  0.0000E+00  0.0000E+00  0.0000E+00  0.0000E+00  0.0000E+00  0.0000E+00
    -17.177  0.0000E+00  0.0000E+00  0.0000E+00  0.0000E+00  0.0000E+00  0.0000E+00  0.0000E+00  0.0000E+00  0.0000E+00
    -17.067  0.0000E+00  0.0000E+00  0.0000E+00  0.0000E+00  0.0000E+00  0.0000E+00  0.0000E+00  0.0000E+00  0.0000E+00
    -16.958  0.0000E+00  0.0000E+00  0.0000E+00  0.0000E+00  0.0000E+00  0.0000E+00  0.0000E+00  0.0000E+00  0.0000E+00
    -16.848  0.0000E+00  0.0000E+00  0.0000E+00  0.0000E+00  0.0000E+00  0.0000E+00  0.0000E+00  0.0000E+00  0.0000E+00
    -16.738  0.0000E+00  0.0000E+00  0.0000E+00  0.0000E+00  0.0000E+00  0.0000E+00  0.0000E+00  0.0000E+00  0.0000E+00
    -16.629  0.0000E+00  0.0000E+00  0.0000E+00  0.0000E+00  0.0000E+00  0.0000E+00  0.0000E+00  0.0000E+00  0.0000E+00
    -16.519  0.0000E+00  0.0000E+00  0.0000E+00  0.0000E+00  0.0000E+00  0.0000E+00  0.0000E+00  0.0000E+00  0.0000E+00
    -16.409  0.0000E+00  0.0000E+00  0.0000E+00  0.0000E+00  0.0000E+00  0.0000E+00  0.0000E+00  0.0000E+00  0.0000E+00
    -16.299  0.0000E+00  0.0000E+00  0.0000E+00  0.0000E+00  0.0000E+00  0.0000E+00  0.0000E+00  0.0000E+00  0.0000E+00
    -16.190  0.0000E+00  0.0000E+00  0.0000E+00  0.0000E+00  0.0000E+00  0.0000E+00  0.0000E+00  0.0000E+00  0.0000E+00
    -16.080  0.0000E+00  0.0000E+00  0.0000E+00  0.0000E+00  0.0000E+00  0.0000E+00  0.0000E+00  0.0000E+00  0.0000E+00
    -15.970  0.0000E+00  0.0000E+00  0.0000E+00  0.0000E+00  0.0000E+00  0.0000E+00  0.0000E+00  0.0000E+00  0.0000E+00
    -15.861  0.0000E+00  0.0000E+00  0.0000E+00  0.0000E+00  0.0000E+00  0.0000E+00  0.0000E+00  0.0000E+00  0.0000E+00
    -15.751  0.0000E+00  0.0000E+00  0.0000E+00  0.0000E+00  0.0000E+00  0.0000E+00  0.0000E+00  0.0000E+00  0.0000E+00
    -15.641  0.0000E+00  0.0000E+00  0.0000E+00  0.0000E+00  0.0000E+00  0.0000E+00  0.0000E+00  0.0000E+00  0.0000E+00
    -15.531  0.0000E+00  0.0000E+00  0.0000E+00  0.0000E+00  0.0000E+00  0.0000E+00  0.0000E+00  0.0000E+00  0.0000E+00
    -15.422  0.0000E+00  0.0000E+00  0.0000E+00  0.0000E+00  0.0000E+00  0.0000E+00  0.0000E+00  0.0000E+00  0.0000E+00
    -15.312  0.0000E+00  0.0000E+00  0.0000E+00  0.0000E+00  0.0000E+00  0.0000E+00  0.0000E+00  0.0000E+00  0.0000E+00
    -15.202  0.0000E+00  0.0000E+00  0.0000E+00  0.0000E+00  0.0000E+00  0.0000E+00  0.0000E+00  0.0000E+00  0.0000E+00
    -15.093  0.0000E+00  0.0000E+00  0.0000E+00  0.0000E+00  0.0000E+00  0.0000E+00  0.0000E+00  0.0000E+00  0.0000E+00
    -14.983  0.0000E+00  0.0000E+00  0.0000E+00  0.0000E+00  0.0000E+00  0.0000E+00  0.0000E+00  0.0000E+00  0.0000E+00
    -14.873  0.0000E+00  0.0000E+00  0.0000E+00  0.0000E+00  0.0000E+00  0.0000E+00  0.0000E+00  0.0000E+00  0.0000E+00
    -14.763  0.0000E+00  0.0000E+00  0.0000E+00  0.0000E+00  0.0000E+00  0.0000E+00  0.0000E+00  0.0000E+00  0.0000E+00
    -14.654  0.0000E+00  0.0000E+00  0.0000E+00  0.0000E+00  0.0000E+00  0.0000E+00  0.0000E+00  0.0000E+00  0.0000E+00
    -14.544  0.0000E+00  0.0000E+00  0.0000E+00  0.0000E+00  0.0000E+00  0.0000E+00  0.0000E+00  0.0000E+00  0.0000E+00
    -14.434  0.0000E+00  0.0000E+00  0.0000E+00  0.0000E+00  0.0000E+00  0.0000E+00  0.0000E+00  0.0000E+00  0.0000E+00
    -14.325  0.0000E+00  0.0000E+00  0.0000E+00  0.0000E+00  0.0000E+00  0.0000E+00  0.0000E+00  0.0000E+00  0.0000E+00
    -14.215  0.0000E+00  0.0000E+00  0.0000E+00  0.0000E+00  0.0000E+00  0.0000E+00  0.0000E+00  0.0000E+00  0.0000E+00
    -14.105  0.0000E+00  0.0000E+00  0.0000E+00  0.0000E+00  0.0000E+00  0.0000E+00  0.0000E+00  0.0000E+00  0.0000E+00
    -13.995  0.0000E+00  0.0000E+00  0.0000E+00  0.0000E+00  0.0000E+00  0.0000E+00  0.0000E+00  0.0000E+00  0.0000E+00
    -13.886  0.0000E+00  0.0000E+00  0.0000E+00  0.0000E+00  0.0000E+00  0.0000E+00  0.0000E+00  0.0000E+00  0.0000E+00
    -13.776  0.0000E+00  0.0000E+00  0.0000E+00  0.0000E+00  0.0000E+00  0.0000E+00  0.0000E+00  0.0000E+00  0.0000E+00
    -13.666  0.0000E+00  0.0000E+00  0.0000E+00  0.0000E+00  0.0000E+00  0.0000E+00  0.0000E+00  0.0000E+00  0.0000E+00
    -13.557  0.0000E+00  0.0000E+00  0.0000E+00  0.0000E+00  0.0000E+00  0.0000E+00  0.0000E+00  0.0000E+00  0.0000E+00
    -13.447  0.0000E+00  0.0000E+00  0.0000E+00  0.0000E+00  0.0000E+00  0.0000E+00  0.0000E+00  0.0000E+00  0.0000E+00
    -13.337  0.0000E+00  0.0000E+00  0.0000E+00  0.0000E+00  0.0000E+00  0.0000E+00  0.0000E+00  0.0000E+00  0.0000E+00
    -13.227  0.0000E+00  0.0000E+00  0.0000E+00  0.0000E+00  0.0000E+00  0.0000E+00  0.0000E+00  0.0000E+00  0.0000E+00
    -13.118  0.0000E+00  0.0000E+00  0.0000E+00  0.0000E+00  0.0000E+00  0.0000E+00  0.0000E+00  0.0000E+00  0.0000E+00
    -13.008  0.0000E+00  0.0000E+00  0.0000E+00  0.0000E+00  0.0000E+00  0.0000E+00  0.0000E+00  0.0000E+00  0.0000E+00
    -12.898  0.0000E+00  0.0000E+00  0.0000E+00  0.0000E+00  0.0000E+00  0.0000E+00  0.0000E+00  0.0000E+00  0.0000E+00
    -12.789  0.0000E+00  0.0000E+00  0.0000E+00  0.0000E+00  0.0000E+00  0.0000E+00  0.0000E+00  0.0000E+00  0.0000E+00
    -12.679  0.0000E+00  0.0000E+00  0.0000E+00  0.0000E+00  0.0000E+00  0.0000E+00  0.0000E+00  0.0000E+00  0.0000E+00
    -12.569  0.0000E+00  0.0000E+00  0.0000E+00  0.0000E+00  0.0000E+00  0.0000E+00  0.0000E+00  0.0000E+00  0.0000E+00
    -12.459  0.0000E+00  0.0000E+00  0.0000E+00  0.0000E+00  0.0000E+00  0.0000E+00  0.0000E+00  0.0000E+00  0.0000E+00
    -12.350  0.0000E+00  0.0000E+00  0.0000E+00  0.0000E+00  0.0000E+00  0.0000E+00  0.0000E+00  0.0000E+00  0.0000E+00
    -12.240  0.0000E+00  0.0000E+00  0.0000E+00  0.0000E+00  0.0000E+00  0.0000E+00  0.0000E+00  0.0000E+00  0.0000E+00
    -12.130  0.0000E+00  0.0000E+00  0.0000E+00  0.0000E+00  0.0000E+00  0.0000E+00  0.0000E+00  0.0000E+00  0.0000E+00
    -12.021  0.0000E+00  0.0000E+00  0.0000E+00  0.0000E+00  0.0000E+00  0.0000E+00  0.0000E+00  0.0000E+00  0.0000E+00
    -11.911  0.0000E+00  0.0000E+00  0.0000E+00  0.0000E+00  0.0000E+00  0.0000E+00  0.0000E+00  0.0000E+00  0.0000E+00
    -11.801  0.0000E+00  0.0000E+00  0.0000E+00  0.0000E+00  0.0000E+00  0.0000E+00  0.0000E+00  0.0000E+00  0.0000E+00
    -11.692  0.1289E-17  0.3787E-22  0.2482E-18  0.1771E-22  0.1673E-22  0.3476E-22  0.1112E-19  0.1219E-22  0.3202E-22
    -11.582  0.4032E-13  0.2771E-17  0.7766E-14  0.2006E-17  0.5536E-18  0.1856E-17  0.3487E-15  0.1171E-17  0.1040E-17
    -11.472  0.1219E-09  0.3011E-13  0.2351E-10  0.2797E-13  0.2130E-14  0.1615E-13  0.1066E-11  0.1546E-13  0.3687E-14
    -11.362  0.3799E-07  0.3756E-10  0.7379E-08  0.3817E-10  0.1282E-11  0.1874E-10  0.3482E-09  0.2090E-10  0.1872E-11
    -11.253  0.1432E-05  0.5056E-08  0.2848E-06  0.5416E-08  0.1342E-09  0.2489E-08  0.1526E-07  0.2984E-08  0.1728E-09
    -11.143  0.8785E-05  0.8028E-07  0.1843E-05  0.9141E-07  0.2213E-08  0.4010E-07  0.1256E-06  0.5186E-07  0.2923E-08
    -11.033  0.1132E-04  0.1811E-06  0.2555E-05  0.2293E-06  0.6325E-08  0.9517E-07  0.2308E-06  0.1401E-06  0.9722E-08
    -10.924  0.3127E-05  0.6968E-07  0.7724E-06  0.1055E-06  0.3579E-08  0.4065E-07  0.9492E-07  0.7239E-07  0.6504E-08
    -10.814  0.1731E-06  0.5025E-08  0.4799E-07  0.9274E-08  0.3677E-09  0.3313E-08  0.7972E-08  0.7025E-08  0.7343E-09
    -10.704  0.1746E-08  0.6008E-10  0.5301E-09  0.1254E-09  0.5261E-11  0.4248E-10  0.1047E-09  0.9935E-10  0.1082E-10
    -10.594  0.2460E-11  0.8981E-13  0.7748E-12  0.1995E-12  0.8402E-14  0.6502E-13  0.1624E-12  0.1601E-12  0.1732E-13
    -10.485  0.3786E-15  0.1396E-16  0.1205E-15  0.3228E-16  0.1344E-17  0.1018E-16  0.2565E-16  0.2599E-16  0.2754E-17
    -10.375  0.5682E-20  0.2084E-21  0.1815E-20  0.4997E-21  0.2056E-22  0.1523E-21  0.3887E-21  0.4029E-21  0.4193E-22
    -10.265  0.0000E+00  0.0000E+00  0.0000E+00  0.0000E+00  0.0000E+00  0.0000E+00  0.0000E+00  0.0000E+00  0.0000E+00
    -10.156  0.0000E+00  0.0000E+00  0.0000E+00  0.0000E+00  0.0000E+00  0.0000E+00  0.0000E+00  0.0000E+00  0.0000E+00
    -10.046  0.0000E+00  0.0000E+00  0.0000E+00  0.0000E+00  0.0000E+00  0.0000E+00  0.0000E+00  0.0000E+00  0.0000E+00
     -9.936  0.0000E+00  0.0000E+00  0.0000E+00  0.0000E+00  0.0000E+00  0.0000E+00  0.0000E+00  0.0000E+00  0.0000E+00
     -9.826  0.5450E-17  0.1686E-25  0.4801E-18  0.1982E-23  0.1305E-20  0.5021E-23  0.1372E-19  0.1058E-22  0.4202E-21
     -9.717  0.5998E-12  0.1856E-20  0.5284E-13  0.2182E-18  0.1437E-15  0.5527E-18  0.1510E-14  0.1165E-17  0.4625E-16
     -9.607  0.6250E-08  0.1934E-16  0.5506E-09  0.2273E-14  0.1497E-11  0.5759E-14  0.1574E-10  0.1214E-13  0.4819E-12
     -9.497  0.6352E-05  0.1965E-13  0.5595E-06  0.2310E-11  0.1522E-08  0.5853E-11  0.1599E-07  0.1234E-10  0.4898E-09
     -9.388  0.6674E-03  0.2065E-11  0.5879E-04  0.2427E-09  0.1599E-06  0.6149E-09  0.1680E-05  0.1296E-08  0.5146E-07
     -9.278  0.8074E-02  0.2506E-10  0.7112E-03  0.2936E-08  0.1934E-05  0.7439E-08  0.2033E-04  0.1568E-07  0.6225E-06
     -9.168  0.1289E-01  0.8644E-09  0.1136E-02  0.5496E-08  0.3088E-05  0.1211E-07  0.3246E-04  0.2530E-07  0.9941E-06
     -9.058  0.2863E-02  0.7878E-06  0.2526E-03  0.7755E-06  0.7249E-06  0.2199E-06  0.7138E-05  0.2551E-06  0.2478E-06
     -8.949  0.3647E-02  0.7798E-04  0.3551E-03  0.7700E-04  0.4747E-05  0.2151E-04  0.2103E-05  0.2482E-04  0.2956E-05
     -8.839  0.4093E-01  0.8920E-03  0.3993E-02  0.8845E-03  0.5429E-04  0.2461E-03  0.2192E-04  0.2850E-03  0.3380E-04
     -8.729  0.6212E-01  0.1351E-02  0.6060E-02  0.1345E-02  0.8250E-04  0.3727E-03  0.3328E-04  0.4334E-03  0.5126E-04
     -8.620  0.1299E-01  0.2806E-03  0.1264E-02  0.2805E-03  0.1725E-04  0.7741E-04  0.8472E-05  0.9038E-04  0.1068E-04