   18   18  200    1
  0.4084014E+02  0.5278552E-09  0.5278552E-09  0.3046488E-08  0.5000000E-15
   1.0000000000000000E-004
  CAR 
 Cu-Ag alloy CO adsorption (RPBE, matches
    186     10    111
 
  0.1262379E-14  0.1262379E-14  0.1262379E-14  0.6250000E-01
      1        -24.238495   1.000000
      2        -11.175436   1.000000
      3         -9.251828   1.000000
      4         -8.427155   1.000000
      5         -7.682321   1.000000
      6         -7.576430   1.000000
      7         -7.534714   1.000000
      8         -7.271101   1.000000
      9         -6.984288   1.000000
     10         -6.956310   1.000000
     11         -6.933321   1.000000
     12         -6.802370   1.000000
     13         -6.642429   1.000000
     14         -6.544433   1.000000
     15         -6.511596   1.000000
     16         -6.455112   1.000000
     17         -6.378859   1.000000
     18         -6.260396   1.000000
     19         -6.215522   1.000000
     20         -6.152311   1.000000
     21         -5.983051   1.000000
     22         -5.927085   1.000000
     23         -5.626019   1.000000
     24         -5.513820   1.000000
     25         -5.446906   1.000000
     26         -5.381771   1.000000
     27         -5.317519   1.000000
     28         -5.162151   1.000000
     29         -4.952978   1.000000
     30         -4.914687   1.000000
     31         -4.682714   1.000000
     32         -4.575935   1.000000
     33         -4.501183   1.000000
     34         -4.253104   1.000000
     35         -4.224016   1.000000
     36         -4.214301   1.000000
     37         -4.187119   1.000000
     38         -4.118952   1.000000
     39         -4.055008   1.000000
     40         -4.007869   1.000000
     41         -4.002044   1.000000
     42         -3.975803   1.000000
     43         -3.947353   1.000000
     44         -3.932669   1.000000
     45         -3.896656   1.000000
     46         -3.862275   1.000000
     47         -3.809453   1.000000
     48         -3.793752   1.000000
     49         -3.746233   1.000000
     50         -3.654203   1.000000
     51         -3.648263   1.000000
     52         -3.612520   1.000000
     53         -3.564514   1.000000
     54         -3.537623   1.000000
     55         -3.515938   1.000000
     56         -3.419888   1.000000
     57         -3.350943   1.000000
     58         -3.344048   1.000000
     59         -3.295312   1.000000
     60         -3.233322   1.000000
     61         -3.206580   1.000000
     62         -3.142540   1.000000
     63         -3.123669   1.000000
     64         -3.071105   1.000000
     65         -3.041277   1.000000
     66         -2.984022   1.000000
     67         -2.942577   1.000000
     68         -2.895380   1.000000
     69         -2.866932   1.000000
     70         -2.849340   1.000000
     71         -2.830537   1.000000
     72         -2.804152   1.000000
     73         -2.778972   1.000000
     74         -2.754269   1.000000
     75         -2.737491   1.000000
     76         -2.730588   1.000000
     77         -2.721914   1.000000
     78         -2.696990   1.000000
     79         -2.660063   1.000000
     80         -2.643760   1.000000
     81         -2.625632   1.000000
     82         -2.587616   1.000000
     83         -2.581590   1.000000
     84         -2.567160   1.000000
     85         -2.537402   1.000000
     86         -2.509393   1.000000
     87         -2.434603   1.000000
     88         -2.413364   1.000000
     89         -1.794856   1.000000
     90         -1.184794   0.985751
     91         -1.162356   0.969468
     92         -1.104788   0.855178
     93         -0.588915   0.000000
     94         -0.366860   0.000000
     95         -0.304595   0.000000
     96          0.058583   0.000000
     97          0.135226   0.000000
     98          0.210130   0.000000
     99          0.521918   0.000000
    100          0.544550   0.000000
    101          0.630444   0.000000
    102          1.313812   0.000000
    103          1.426134   0.000000
    104          2.126859   0.000000
    105          3.056550   0.000000
    106          3.200983   0.000000
    107          3.260931   0.000000
    108          3.522080   0.000000
    109          3.677776   0.000000
    110          4.083594   0.000000
    111          4.109354   0.000000
 
  0.2500000E+00  0.1272164E-14  0.1262379E-14  0.1250000E+00
      1        -24.238337   1.000000
      2        -11.103113   1.000000
      3         -8.815669   1.000000
      4         -8.225486   1.000000
      5         -7.651145   1.000000
      6         -7.527701   1.000000
      7         -7.377859   1.000000
      8         -7.110510   1.000000
      9         -6.981000   1.000000
     10         -6.839619   1.000000
     11         -6.801668   1.000000
     12         -6.707970   1.000000
     13         -6.552626   1.000000
     14         -6.456901   1.000000
     15         -6.414403   1.000000
     16         -6.308408   1.000000
     17         -6.225012   1.000000
     18         -6.162146   1.000000
     19         -6.089445   1.000000
     20         -5.975878   1.000000
     21         -5.911177   1.000000
     22         -5.867345   1.000000
     23         -5.626483   1.000000
     24         -5.507749   1.000000
     25         -5.456183   1.000000
     26         -5.359527   1.000000
     27         -5.295565   1.000000
     28         -5.063804   1.000000
     29         -4.953663   1.000000
     30         -4.837999   1.000000
     31         -4.722205   1.000000
     32         -4.676743   1.000000
     33         -4.619682   1.000000
     34         -4.390914   1.000000
     35         -4.293331   1.000000
     36         -4.260104   1.000000
     37         -4.230946   1.000000
     38         -4.146209   1.000000
     39         -4.128468   1.000000
     40         -4.091302   1.000000
     41         -4.055246   1.000000
     42         -4.021158   1.000000
     43         -3.979796   1.000000
     44         -3.943359   1.000000
     45         -3.903457   1.000000
     46         -3.880181   1.000000
     47         -3.826760   1.000000
     48         -3.808054   1.000000
     49         -3.787051   1.000000
     50         -3.743002   1.000000
     51         -3.715590   1.000000
     52         -3.700820   1.000000
     53         -3.659325   1.000000
     54         -3.613388   1.000000
     55         -3.576231   1.000000
     56         -3.531974   1.000000
     57         -3.474029   1.000000
     58         -3.446167   1.000000
     59         -3.409376   1.000000
     60         -3.379064   1.000000
     61         -3.322664   1.000000
     62         -3.272339   1.000000
     63         -3.248340   1.000000
     64         -3.215313   1.000000
     65         -3.185504   1.000000
     66         -3.167200   1.000000
     67         -3.139205   1.000000
     68         -3.089874   1.000000
     69         -3.050700   1.000000
     70         -3.018782   1.000000
     71         -3.002971   1.000000
     72         -2.985693   1.000000
     73         -2.957754   1.000000
     74         -2.931990   1.000000
     75         -2.905623   1.000000
     76         -2.883502   1.000000
     77         -2.864920   1.000000
     78         -2.814785   1.000000
     79         -2.793394   1.000000
     80         -2.781301   1.000000
     81         -2.754691   1.000000
     82         -2.728019   1.000000
     83         -2.689222   1.000000
     84         -2.667508   1.000000
     85         -2.659899   1.000000
     86         -2.643225   1.000000
     87         -2.605605   1.000000
     88         -2.551579   1.000000
     89         -2.443199   1.000000
     90         -2.112762   1.000000
     91         -1.327451   0.999987
     92         -1.126001   0.912911
     93         -1.098683   0.834617
     94         -0.789569   0.000338
     95         -0.722870   0.000007
     96         -0.365050   0.000000
     97          0.177018   0.000000
     98          0.391876   0.000000
     99          0.768919   0.000000
    100          1.507529   0.000000
    101          1.654290   0.000000
    102          2.107638   0.000000
    103          2.560858   0.000000
    104          3.014520   0.000000
    105          3.448978   0.000000
    106          3.714547   0.000000
    107          3.896475   0.000000
    108          4.027595   0.000000
    109          4.343552   0.000000
    110          4.547418   0.000000
    111          4.632091   0.000000
 
  0.2500000E+00  0.2500000E+00  0.1262379E-14  0.1250000E+00
      1        -24.238334   1.000000
      2        -11.103014   1.000000
      3         -8.815735   1.000000
      4         -8.225585   1.000000
      5         -7.652919   1.000000
      6         -7.527161   1.000000
      7         -7.380567   1.000000
      8         -7.086771   1.000000
      9         -6.948865   1.000000
     10         -6.857463   1.000000
     11         -6.800643   1.000000
     12         -6.738573   1.000000
     13         -6.573848   1.000000
     14         -6.428900   1.000000
     15         -6.374295   1.000000
     16         -6.321266   1.000000
     17         -6.243432   1.000000
     18         -6.180713   1.000000
     19         -6.154736   1.000000
     20         -5.992053   1.000000
     21         -5.901688   1.000000
     22         -5.821043   1.000000
     23         -5.614784   1.000000
     24         -5.534023   1.000000
     25         -5.450975   1.000000
     26         -5.359212   1.000000
     27         -5.277184   1.000000
     28         -5.082204   1.000000
     29         -4.939563   1.000000
     30         -4.850178   1.000000
     31         -4.703775   1.000000
     32         -4.665595   1.000000
     33         -4.614634   1.000000
     34         -4.396290   1.000000
     35         -4.320264   1.000000
     36         -4.282089   1.000000
     37         -4.257414   1.000000
     38         -4.192067   1.000000
     39         -4.091598   1.000000
     40         -4.060864   1.000000
     41         -4.014560   1.000000
     42         -3.994191   1.000000
     43         -3.963886   1.000000
     44         -3.919376   1.000000
     45         -3.907749   1.000000
     46         -3.872813   1.000000
     47         -3.836148   1.000000
     48         -3.823271   1.000000
     49         -3.805870   1.000000
     50         -3.746571   1.000000
     51         -3.714493   1.000000
     52         -3.689252   1.000000
     53         -3.648708   1.000000
     54         -3.632740   1.000000
     55         -3.580142   1.000000
     56         -3.528738   1.000000
     57         -3.467862   1.000000
     58         -3.438486   1.000000
     59         -3.404569   1.000000
     60         -3.375252   1.000000
     61         -3.334596   1.000000
     62         -3.270631   1.000000
     63         -3.235149   1.000000
     64         -3.228611   1.000000
     65         -3.196104   1.000000
     66         -3.167127   1.000000
     67         -3.138487   1.000000
     68         -3.115894   1.000000
     69         -3.053209   1.000000
     70         -3.023037   1.000000
     71         -3.016093   1.000000
     72         -2.982491   1.000000
     73         -2.945757   1.000000
     74         -2.933241   1.000000
     75         -2.909727   1.000000
     76         -2.879490   1.000000
     77         -2.834337   1.000000
     78         -2.807997   1.000000
     79         -2.783386   1.000000
     80         -2.762585   1.000000
     81         -2.748592   1.000000
     82         -2.728559   1.000000
     83         -2.703813   1.000000
     84         -2.677817   1.000000
     85         -2.664378   1.000000
     86         -2.638679   1.000000
     87         -2.608669   1.000000
     88         -2.548136   1.000000
     89         -2.473100   1.000000
     90         -2.125873   1.000000
     91         -1.305167   0.999950
     92         -1.146339   0.950172
     93         -1.089568   0.800571
     94         -0.771411   0.000128
     95         -0.738844   0.000019
     96         -0.337299   0.000000
     97          0.167503   0.000000
     98          0.386322   0.000000
     99          0.750979   0.000000
    100          1.553527   0.000000
    101          1.635919   0.000000
    102          2.133821   0.000000
    103          2.527828   0.000000
    104          3.049865   0.000000
    105          3.433151   0.000000
    106          3.634062   0.000000
    107          3.933763   0.000000
    108          4.027107   0.000000
    109          4.341664   0.000000
    110          4.547603   0.000000
    111          4.613878   0.000000
 
  0.1262379E-14  0.2500000E+00  0.1262379E-14  0.1250000E+00
      1        -24.238344   1.000000
      2        -11.105385   1.000000
      3         -8.816029   1.000000
      4         -8.224803   1.000000
      5         -7.625133   1.000000
      6         -7.556337   1.000000
      7         -7.385210   1.000000
      8         -7.137479   1.000000
      9         -6.971944   1.000000
     10         -6.881907   1.000000
     11         -6.809634   1.000000
     12         -6.679041   1.000000
     13         -6.501575   1.000000
     14         -6.436596   1.000000
     15         -6.363385   1.000000
     16         -6.299425   1.000000
     17         -6.212546   1.000000
     18         -6.155745   1.000000
     19         -6.126677   1.000000
     20         -6.040560   1.000000
     21         -5.928095   1.000000
     22         -5.863955   1.000000
     23         -5.593308   1.000000
     24         -5.522945   1.000000
     25         -5.428100   1.000000
     26         -5.329801   1.000000
     27         -5.297917   1.000000
     28         -5.072345   1.000000
     29         -4.958945   1.000000
     30         -4.841236   1.000000
     31         -4.688252   1.000000
     32         -4.654514   1.000000
     33         -4.605043   1.000000
     34         -4.411308   1.000000
     35         -4.341355   1.000000
     36         -4.282246   1.000000
     37         -4.232293   1.000000
     38         -4.160166   1.000000
     39         -4.121136   1.000000
     40         -4.100072   1.000000
     41         -4.065870   1.000000
     42         -4.034511   1.000000
     43         -3.970030   1.000000
     44         -3.929858   1.000000
     45         -3.906453   1.000000
     46         -3.856537   1.000000
     47         -3.835684   1.000000
     48         -3.806550   1.000000
     49         -3.763163   1.000000
     50         -3.732722   1.000000
     51         -3.721730   1.000000
     52         -3.682760   1.000000
     53         -3.653197   1.000000
     54         -3.633598   1.000000
     55         -3.589374   1.000000
     56         -3.528400   1.000000
     57         -3.508040   1.000000
     58         -3.441433   1.000000
     59         -3.392135   1.000000
     60         -3.356523   1.000000
     61         -3.333138   1.000000
     62         -3.282482   1.000000
     63         -3.260662   1.000000
     64         -3.243210   1.000000
     65         -3.196797   1.000000
     66         -3.155557   1.000000
     67         -3.135007   1.000000
     68         -3.089533   1.000000
     69         -3.057688   1.000000
     70         -3.028841   1.000000
     71         -3.004958   1.000000
     72         -2.992029   1.000000
     73         -2.949608   1.000000
     74         -2.913573   1.000000
     75         -2.898784   1.000000
     76         -2.886299   1.000000
     77         -2.861396   1.000000
     78         -2.844116   1.000000
     79         -2.817413   1.000000
     80         -2.801084   1.000000
     81         -2.746759   1.000000
     82         -2.735712   1.000000
     83         -2.701208   1.000000
     84         -2.669706   1.000000
     85         -2.618504   1.000000
     86         -2.607343   1.000000
     87         -2.578973   1.000000
     88         -2.564224   1.000000
     89         -2.424322   1.000000
     90         -2.152869   1.000000
     91         -1.321087   0.999981
     92         -1.161536   0.968659
     93         -1.053193   0.629013
     94         -0.801295   0.000612
     95         -0.745871   0.000029
     96         -0.346197   0.000000
     97          0.184270   0.000000
     98          0.364080   0.000000
     99          0.777337   0.000000
    100          1.495597   0.000000
    101          1.682127   0.000000
    102          2.075694   0.000000
    103          2.571545   0.000000
    104          3.029490   0.000000
    105          3.473614   0.000000
    106          3.687780   0.000000
    107          3.913282   0.000000
    108          4.026460   0.000000
    109          4.304069   0.000000
    110          4.547946   0.000000
    111          4.669346   0.000000
 
  0.5000000E+00  0.1275510E-14  0.1262379E-14  0.6250000E-01
      1        -24.238111   1.000000
      2        -11.033103   1.000000
      3         -8.100958   1.000000
      4         -7.812581   1.000000
      5         -7.572734   1.000000
      6         -7.515841   1.000000
      7         -7.497754   1.000000
      8         -7.034472   1.000000
      9         -6.905207   1.000000
     10         -6.745648   1.000000
     11         -6.691843   1.000000
     12         -6.582002   1.000000
     13         -6.484182   1.000000
     14         -6.307884   1.000000
     15         -6.200001   1.000000
     16         -6.184994   1.000000
     17         -5.999446   1.000000
     18         -5.957145   1.000000
     19         -5.927818   1.000000
     20         -5.866197   1.000000
     21         -5.781264   1.000000
     22         -5.679971   1.000000
     23         -5.611771   1.000000
     24         -5.593520   1.000000
     25         -5.441794   1.000000
     26         -5.411689   1.000000
     27         -5.382775   1.000000
     28         -5.235839   1.000000
     29         -5.023959   1.000000
     30         -4.919109   1.000000
     31         -4.755231   1.000000
     32         -4.738354   1.000000
     33         -4.642993   1.000000
     34         -4.555756   1.000000
     35         -4.453357   1.000000
     36         -4.416179   1.000000
     37         -4.320639   1.000000
     38         -4.258474   1.000000
     39         -4.215059   1.000000
     40         -4.161980   1.000000
     41         -4.150381   1.000000
     42         -4.102885   1.000000
     43         -4.073321   1.000000
     44         -4.053210   1.000000
     45         -4.022815   1.000000
     46         -3.949771   1.000000
     47         -3.939215   1.000000
     48         -3.893690   1.000000
     49         -3.847878   1.000000
     50         -3.820023   1.000000
     51         -3.796195   1.000000
     52         -3.752103   1.000000
     53         -3.725799   1.000000
     54         -3.677797   1.000000
     55         -3.674618   1.000000
     56         -3.646806   1.000000
     57         -3.628842   1.000000
     58         -3.590277   1.000000
     59         -3.547174   1.000000
     60         -3.525709   1.000000
     61         -3.496010   1.000000
     62         -3.474916   1.000000
     63         -3.431995   1.000000
     64         -3.354048   1.000000
     65         -3.334843   1.000000
     66         -3.310598   1.000000
     67         -3.298636   1.000000
     68         -3.284783   1.000000
     69         -3.263688   1.000000
     70         -3.250277   1.000000
     71         -3.181166   1.000000
     72         -3.165767   1.000000
     73         -3.123644   1.000000
     74         -3.108546   1.000000
     75         -3.052361   1.000000
     76         -3.035636   1.000000
     77         -3.006562   1.000000
     78         -2.996462   1.000000
     79         -2.973435   1.000000
     80         -2.943184   1.000000
     81         -2.885728   1.000000
     82         -2.852973   1.000000
     83         -2.777671   1.000000
     84         -2.768811   1.000000
     85         -2.688625   1.000000
     86         -2.649763   1.000000
     87         -2.632792   1.000000
     88         -2.559157   1.000000
     89         -2.534767   1.000000
     90         -2.238104   1.000000
     91         -1.497652   1.000000
     92         -1.124653   0.909852
     93         -1.071403   0.721323
     94         -0.814909   0.001181
     95         -0.562258   0.000000
     96         -0.432478   0.000000
     97          0.234705   0.000000
     98          0.524485   0.000000
     99          1.147240   0.000000
    100          1.400918   0.000000
    101          1.882676   0.000000
    102          2.439299   0.000000
    103          2.838770   0.000000
    104          3.844397   0.000000
    105          4.206335   0.000000
    106          4.660193   0.000000
    107          4.747742   0.000000
    108          5.275685   0.000000
    109          5.338422   0.000000
    110          5.406285   0.000000
    111          5.589272   0.000000
 
  0.5000000E+00  0.5000000E+00  0.1262379E-14  0.6250000E-01
      1        -24.238105   1.000000
      2        -11.032930   1.000000
      3         -8.104328   1.000000
      4         -7.798177   1.000000
      5         -7.614893   1.000000
      6         -7.511486   1.000000
      7         -7.464948   1.000000
      8         -7.033218   1.000000
      9         -6.883624   1.000000
     10         -6.776530   1.000000
     11         -6.598216   1.000000
     12         -6.551713   1.000000
     13         -6.486451   1.000000
     14         -6.314860   1.000000
     15         -6.249110   1.000000
     16         -6.177843   1.000000
     17         -6.079436   1.000000
     18         -6.053096   1.000000
     19         -5.984087   1.000000
     20         -5.876346   1.000000
     21         -5.846508   1.000000
     22         -5.647567   1.000000
     23         -5.610115   1.000000
     24         -5.535307   1.000000
     25         -5.480231   1.000000
     26         -5.412379   1.000000
     27         -5.265708   1.000000
     28         -5.103097   1.000000
     29         -5.084957   1.000000
     30         -4.900438   1.000000
     31         -4.785002   1.000000
     32         -4.763850   1.000000
     33         -4.632091   1.000000
     34         -4.595174   1.000000
     35         -4.455742   1.000000
     36         -4.415514   1.000000
     37         -4.321341   1.000000
     38         -4.275220   1.000000
     39         -4.204163   1.000000
     40         -4.190942   1.000000
     41         -4.104306   1.000000
     42         -4.082056   1.000000
     43         -4.057637   1.000000
     44         -4.028498   1.000000
     45         -4.000126   1.000000
     46         -3.934805   1.000000
     47         -3.931741   1.000000
     48         -3.888760   1.000000
     49         -3.861117   1.000000
     50         -3.811817   1.000000
     51         -3.794129   1.000000
     52         -3.767129   1.000000
     53         -3.703064   1.000000
     54         -3.693709   1.000000
     55         -3.664592   1.000000
     56         -3.648772   1.000000
     57         -3.617665   1.000000
     58         -3.572234   1.000000
     59         -3.562347   1.000000
     60         -3.550648   1.000000
     61         -3.507173   1.000000
     62         -3.464138   1.000000
     63         -3.434335   1.000000
     64         -3.379509   1.000000
     65         -3.363346   1.000000
     66         -3.336653   1.000000
     67         -3.306737   1.000000
     68         -3.273799   1.000000
     69         -3.264973   1.000000
     70         -3.216890   1.000000
     71         -3.196303   1.000000
     72         -3.153711   1.000000
     73         -3.130567   1.000000
     74         -3.110612   1.000000
     75         -3.057343   1.000000
     76         -3.037534   1.000000
     77         -3.017689   1.000000
     78         -2.994953   1.000000
     79         -2.958171   1.000000
     80         -2.919223   1.000000
     81         -2.868867   1.000000
     82         -2.846737   1.000000
     83         -2.789626   1.000000
     84         -2.766802   1.000000
     85         -2.690092   1.000000
     86         -2.665272   1.000000
     87         -2.642298   1.000000
     88         -2.560365   1.000000
     89         -2.521901   1.000000
     90         -2.234858   1.000000
     91         -1.498368   1.000000
     92         -1.153409   0.959639
     93         -0.968990   0.194462
     94         -0.865626   0.010080
     95         -0.607193   0.000000
     96         -0.434912   0.000000
     97          0.253160   0.000000
     98          0.539858   0.000000
     99          1.163041   0.000000
    100          1.388960   0.000000
    101          1.862928   0.000000
    102          2.450896   0.000000
    103          2.864058   0.000000
    104          3.817812   0.000000
    105          4.276926   0.000000
    106          4.560449   0.000000
    107          4.835519   0.000000
    108          5.275299   0.000000
    109          5.344659   0.000000
    110          5.387751   0.000000
    111          5.534531   0.000000
 
  0.1262379E-14  0.5000000E+00  0.1262379E-14  0.6250000E-01
      1        -24.238127   1.000000
      2        -11.037730   1.000000
      3         -8.103690   1.000000
      4         -7.818639   1.000000
      5         -7.550560   1.000000
      6         -7.539478   1.000000
      7         -7.491509   1.000000
      8         -7.097944   1.000000
      9         -6.894023   1.000000
     10         -6.851739   1.000000
     11         -6.643156   1.000000
     12         -6.451680   1.000000
     13         -6.399294   1.000000
     14         -6.337508   1.000000
     15         -6.207762   1.000000
     16         -6.132547   1.000000
     17         -6.039826   1.000000
     18         -5.959146   1.000000
     19         -5.904600   1.000000
     20         -5.882537   1.000000
     21         -5.798856   1.000000
     22         -5.718299   1.000000
     23         -5.667889   1.000000
     24         -5.535758   1.000000
     25         -5.450698   1.000000
     26         -5.365392   1.000000
     27         -5.322023   1.000000
     28         -5.260360   1.000000
     29         -4.960300   1.000000
     30         -4.857238   1.000000
     31         -4.829468   1.000000
     32         -4.726611   1.000000
     33         -4.639112   1.000000
     34         -4.583905   1.000000
     35         -4.470015   1.000000
     36         -4.425873   1.000000
     37         -4.369276   1.000000
     38         -4.280904   1.000000
     39         -4.264153   1.000000
     40         -4.213006   1.000000
     41         -4.080851   1.000000
     42         -4.065899   1.000000
     43         -4.052456   1.000000
     44         -4.017520   1.000000
     45         -3.988962   1.000000
     46         -3.976470   1.000000
     47         -3.941292   1.000000
     48         -3.903466   1.000000
     49         -3.848364   1.000000
     50         -3.837693   1.000000
     51         -3.807860   1.000000
     52         -3.767830   1.000000
     53         -3.720223   1.000000
     54         -3.702789   1.000000
     55         -3.693472   1.000000
     56         -3.668772   1.000000
     57         -3.630347   1.000000
     58         -3.571668   1.000000
     59         -3.566674   1.000000
     60         -3.529133   1.000000
     61         -3.511276   1.000000
     62         -3.477841   1.000000
     63         -3.430206   1.000000
     64         -3.370469   1.000000
     65         -3.308323   1.000000
     66         -3.293465   1.000000
     67         -3.286845   1.000000
     68         -3.273024   1.000000
     69         -3.242812   1.000000
     70         -3.232142   1.000000
     71         -3.198772   1.000000
     72         -3.176644   1.000000
     73         -3.156260   1.000000
     74         -3.130899   1.000000
     75         -3.056785   1.000000
     76         -3.044281   1.000000
     77         -3.011257   1.000000
     78         -2.976958   1.000000
     79         -2.963707   1.000000
     80         -2.916119   1.000000
     81         -2.885737   1.000000
     82         -2.873111   1.000000
     83         -2.850024   1.000000
     84         -2.789527   1.000000
     85         -2.641629   1.000000
     86         -2.619470   1.000000
     87         -2.587312   1.000000
     88         -2.573543   1.000000
     89         -2.541461   1.000000
     90         -2.227560   1.000000
     91         -1.531654   1.000000
     92         -1.191977   0.989046
     93         -1.044730   0.582991
     94         -0.805748   0.000762
     95         -0.575741   0.000000
     96         -0.364072   0.000000
     97          0.199049   0.000000
     98          0.456863   0.000000
     99          1.206318   0.000000
    100          1.388151   0.000000
    101          1.895015   0.000000
    102          2.485796   0.000000
    103          2.803147   0.000000
    104          3.855866   0.000000
    105          4.201348   0.000000
    106          4.639099   0.000000
    107          4.716929   0.000000
    108          5.299605   0.000000
    109          5.347575   0.000000
    110          5.365608   0.000000
    111          5.682782   0.000000
 
  0.5000000E+00  0.2500000E+00  0.1262379E-14  0.1250000E+00
      1        -24.237941   1.000000
      2        -11.034170   1.000000
      3         -8.167386   1.000000
      4         -7.852847   1.000000
      5         -7.667316   1.000000
      6         -7.539586   1.000000
      7         -7.071095   1.000000
      8         -6.988047   1.000000
      9         -6.926042   1.000000
     10         -6.772001   1.000000
     11         -6.629635   1.000000
     12         -6.553621   1.000000
     13         -6.456953   1.000000
     14         -6.360834   1.000000