       N       E                     dE             d eps       ncg     rms          rms(c)
DAV:   1     0.176742660580E+04    0.17674E+04   -0.70809E+04  2220   0.159E+03
DAV:   2     0.218137431973E+03   -0.15493E+04   -0.14585E+04  2263   0.405E+02
DAV:   3    -0.402701893772E+02   -0.25841E+03   -0.23994E+03  3090   0.209E+02
DAV:   4    -0.674552695476E+02   -0.27185E+02   -0.26127E+02  3480   0.737E+01
DAV:   5    -0.683156402466E+02   -0.86037E+00   -0.83308E+00  3360   0.143E+01    0.309E+01
DAV:   6    -0.671013278186E+02    0.12143E+01   -0.14650E+02  2896   0.133E+02    0.193E+01
DAV:   7    -0.577652047206E+02    0.93361E+01   -0.44980E+01  2720   0.130E+02    0.962E+00
DAV:   8    -0.590304814632E+02   -0.12653E+01   -0.31092E+01  3256   0.948E+01    0.107E+01
DAV:   9    -0.579360444318E+02    0.10944E+01   -0.13907E+01  3928   0.519E+01    0.555E+00
DAV:  10    -0.579617661292E+02   -0.25722E-01   -0.74684E+00  3760   0.368E+01    0.367E+00
DAV:  11    -0.576514791870E+02    0.31029E+00   -0.17772E+00  2896   0.272E+01    0.108E+00
DAV:  12    -0.576480287419E+02    0.34504E-02   -0.74479E-01  2808   0.113E+01    0.771E-01
DAV:  13    -0.576553221432E+02   -0.72934E-02   -0.21417E-01  2736   0.703E+00    0.394E-01
DAV:  14    -0.576546007690E+02    0.72137E-03   -0.41876E-02  2624   0.247E+00    0.305E-01
DAV:  15    -0.576532593598E+02    0.13414E-02   -0.15786E-02  2664   0.206E+00    0.182E-01
DAV:  16    -0.576523770668E+02    0.88229E-03   -0.31897E-03  2984   0.901E-01    0.923E-02
DAV:  17    -0.576521918665E+02    0.18520E-03   -0.14641E-03  2762   0.722E-01    0.601E-02
DAV:  18    -0.576521965851E+02   -0.47186E-05   -0.67772E-04  2824   0.472E-01    0.391E-02
DAV:  19    -0.576523331301E+02   -0.13655E-03   -0.22276E-04  3218   0.229E-01    0.194E-02
DAV:  20    -0.576524385427E+02   -0.10541E-03   -0.84694E-05  3163   0.155E-01    0.169E-02
DAV:  21    -0.576525542355E+02   -0.11569E-03   -0.36878E-05  3051   0.941E-02    0.106E-02
DAV:  22    -0.576527224141E+02   -0.16818E-03   -0.29422E-05  3019   0.806E-02    0.851E-03
DAV:  23    -0.576527808960E+02   -0.58482E-04   -0.10308E-05  2520   0.493E-02    0.535E-03
DAV:  24    -0.576528263818E+02   -0.45486E-04   -0.61890E-06  2228   0.377E-02    0.358E-03
DAV:  25    -0.576528908369E+02   -0.64455E-04   -0.74910E-06  2020   0.300E-02    0.343E-03
DAV:  26    -0.576529050661E+02   -0.14229E-04   -0.14284E-06  1665   0.184E-02    0.236E-03
DAV:  27    -0.576529186722E+02   -0.13606E-04   -0.91924E-07  1467   0.123E-02    0.126E-03
DAV:  28    -0.576529415056E+02   -0.22833E-04   -0.10384E-06  1525   0.953E-03    0.118E-03
DAV:  29    -0.576529510325E+02   -0.95269E-05   -0.55537E-07  1512   0.876E-03    0.855E-04
DAV:  30    -0.576529566687E+02   -0.56362E-05   -0.26568E-07  1483   0.622E-03    0.661E-04
DAV:  31    -0.576529633719E+02   -0.67032E-05   -0.24419E-07  1468   0.580E-03    0.424E-04
DAV:  32    -0.576529662190E+02   -0.28471E-05   -0.12243E-07  1496   0.386E-03    0.371E-04
DAV:  33    -0.576529680330E+02   -0.18140E-05   -0.70772E-08  1373   0.326E-03    0.285E-04
DAV:  34    -0.576529691170E+02   -0.10840E-05   -0.49280E-08  1433   0.268E-03    0.225E-04
DAV:  35    -0.576529695767E+02   -0.45972E-06   -0.24333E-08  1356   0.184E-03
   1 F= -.57652970E+02 E0= -.57625491E+02  d E =-.576530E+02
       N       E                     dE             d eps       ncg     rms          rms(c)
DAV:   1    -0.545918075470E+02    0.30612E+01   -0.49754E+02  2234   0.498E+01    0.609E+00
DAV:   2    -0.594539527727E+02   -0.48621E+01   -0.53843E+01  3804   0.705E+01    0.146E+01
DAV:   3    -0.550754511619E+02    0.43785E+01   -0.21660E+01  3432   0.501E+01    0.393E+00
DAV:   4    -0.549652377617E+02    0.11021E+00   -0.27654E+00  3696   0.266E+01    0.299E+00
DAV:   5    -0.549570249386E+02    0.82128E-02   -0.22284E+00  2977   0.272E+01    0.246E+00
DAV:   6    -0.549122334261E+02    0.44792E-01   -0.12170E+00  2944   0.218E+01    0.137E+00
DAV:   7    -0.549056086731E+02    0.66248E-02   -0.58475E-01  3400   0.150E+01    0.966E-01
DAV:   8    -0.548918273492E+02    0.13781E-01   -0.21083E-01  3385   0.813E+00    0.372E-01
DAV:   9    -0.548960224287E+02   -0.41951E-02   -0.50678E-02  3160   0.312E+00    0.299E-01
DAV:  10    -0.548989873614E+02   -0.29649E-02   -0.12687E-02  2864   0.208E+00    0.230E-01
DAV:  11    -0.549001677881E+02   -0.11804E-02   -0.82375E-03  2832   0.152E+00    0.659E-02
DAV:  12    -0.549011060221E+02   -0.93823E-03   -0.14892E-03  2784   0.388E-01    0.517E-02
DAV:  13    -0.549015898546E+02   -0.48383E-03   -0.39642E-04  2672   0.364E-01    0.395E-02
DAV:  14    -0.549025777531E+02   -0.98790E-03   -0.44829E-04  2969   0.214E-01    0.207E-02
DAV:  15    -0.549030484643E+02   -0.47071E-03   -0.14144E-04  3216   0.157E-01    0.171E-02
DAV:  16    -0.549032638668E+02   -0.21540E-03   -0.46791E-05  3368   0.128E-01    0.124E-02
DAV:  17    -0.549035227508E+02   -0.25888E-03   -0.56815E-05  3081   0.846E-02    0.911E-03
DAV:  18    -0.549036784584E+02   -0.15571E-03   -0.28930E-05  3072   0.508E-02    0.561E-03
DAV:  19    -0.549037303202E+02   -0.51862E-04   -0.66092E-06  2624   0.431E-02    0.426E-03
DAV:  20    -0.549037705255E+02   -0.40205E-04   -0.30898E-06  1873   0.222E-02    0.314E-03
DAV:  21    -0.549038041354E+02   -0.33610E-04   -0.36130E-06  2009   0.197E-02    0.255E-03
DAV:  22    -0.549038269686E+02   -0.22833E-04   -0.18575E-06  1715   0.164E-02    0.192E-03
DAV:  23    -0.549038345156E+02   -0.75469E-05   -0.93100E-07  1520   0.140E-02    0.112E-03
DAV:  24    -0.549038420038E+02   -0.74882E-05   -0.62721E-07  1499   0.825E-03    0.856E-04
DAV:  25    -0.549038461594E+02   -0.41556E-05   -0.36525E-07  1449   0.675E-03    0.926E-04
DAV:  26    -0.549038479007E+02   -0.17413E-05   -0.23949E-07  1401   0.579E-03    0.732E-04
DAV:  27    -0.549038490098E+02   -0.11091E-05   -0.11972E-07  1313   0.376E-03    0.340E-04
DAV:  28    -0.549038506848E+02   -0.16750E-05   -0.81113E-08  1377   0.266E-03    0.306E-04
DAV:  29    -0.549038513635E+02   -0.67876E-06   -0.41664E-08  1313   0.257E-03
   2 F= -.54903851E+02 E0= -.54877479E+02  d E =0.274912E+01
       N       E                     dE             d eps       ncg     rms          rms(c)
DAV:   1    -0.563790209466E+02   -0.14752E+01   -0.16627E+02  2220   0.402E+01    0.396E+00
DAV:   2    -0.579937669915E+02   -0.16147E+01   -0.16946E+01  3808   0.280E+01    0.559E+00
DAV:   3    -0.575415919510E+02    0.45218E+00   -0.12085E+01  3688   0.413E+01    0.324E+00
DAV:   4    -0.573142812936E+02    0.22731E+00   -0.31612E+00  2978   0.285E+01    0.179E+00
DAV:   5    -0.572693285898E+02    0.44953E-01   -0.28688E-01  3568   0.109E+01    0.131E+00
DAV:   6    -0.572499466157E+02    0.19382E-01   -0.12277E-01  2768   0.863E+00    0.983E-01
DAV:   7    -0.572346409202E+02    0.15306E-01   -0.95932E-02  2824   0.684E+00    0.404E-01
DAV:   8    -0.572322533217E+02    0.23876E-02   -0.35512E-02  3184   0.291E+00    0.180E-01
DAV:   9    -0.572319745097E+02    0.27881E-03   -0.64275E-03  3040   0.130E+00    0.153E-01
DAV:  10    -0.572315948886E+02    0.37962E-03   -0.30529E-03  2672   0.102E+00    0.821E-02
DAV:  11    -0.572313747974E+02    0.22009E-03   -0.12716E-03  2674   0.446E-01    0.468E-02
DAV:  12    -0.572313784019E+02   -0.36046E-05   -0.57421E-04  2732   0.362E-01    0.299E-02
DAV:  13    -0.572314793997E+02   -0.10100E-03   -0.18507E-04  2714   0.296E-01    0.248E-02
DAV:  14    -0.572316964887E+02   -0.21709E-03   -0.88862E-05  3189   0.145E-01    0.129E-02
DAV:  15    -0.572319131052E+02   -0.21662E-03   -0.40702E-05  2841   0.978E-02    0.111E-02
DAV:  16    -0.572321074235E+02   -0.19432E-03   -0.27807E-05  2776   0.898E-02    0.786E-03
DAV:  17    -0.572323121129E+02   -0.20469E-03   -0.20364E-05  3055   0.476E-02    0.417E-03
DAV:  18    -0.572324099089E+02   -0.97796E-04   -0.53352E-06  1984   0.275E-02    0.350E-03
DAV:  19    -0.572324624089E+02   -0.52500E-04   -0.31427E-06  1939   0.296E-02    0.275E-03
DAV:  20    -0.572325294218E+02   -0.67013E-04   -0.34364E-06  1887   0.161E-02    0.146E-03
DAV:  21    -0.572325536755E+02   -0.24254E-04   -0.99529E-07  1601   0.104E-02    0.121E-03
DAV:  22    -0.572325667005E+02   -0.13025E-04   -0.60600E-07  1470   0.106E-02    0.872E-04
DAV:  23    -0.572325855622E+02   -0.18862E-04   -0.88054E-07  1497   0.738E-03    0.805E-04
DAV:  24    -0.572325895713E+02   -0.40091E-05   -0.36872E-07  1504   0.637E-03    0.494E-04
DAV:  25    -0.572325919162E+02   -0.23450E-05   -0.14424E-07  1334   0.409E-03    0.364E-04
DAV:  26    -0.572325940470E+02   -0.21308E-05   -0.10631E-07  1375   0.299E-03    0.242E-04
DAV:  27    -0.572325958982E+02   -0.18511E-05   -0.59991E-08  1353   0.243E-03    0.215E-04
DAV:  28    -0.572325963139E+02   -0.41572E-06   -0.25208E-08  1306   0.177E-03
   3 F= -.57232596E+02 E0= -.57205464E+02  d E =0.420373E+00
       N       E                     dE             d eps       ncg     rms          rms(c)
DAV:   1    -0.576533251049E+02   -0.42073E+00   -0.26089E+01  2220   0.142E+01    0.175E+00
DAV:   2    -0.578426497222E+02   -0.18932E+00   -0.22548E+00  3698   0.977E+00    0.187E+00
DAV:   3    -0.578193523221E+02    0.23297E-01   -0.17398E+00  3364   0.181E+01    0.155E+00
DAV:   4    -0.577626969568E+02    0.56655E-01   -0.65003E-01  2867   0.139E+01    0.760E-01
DAV:   5    -0.577511262739E+02    0.11571E-01   -0.54440E-02  3277   0.526E+00    0.460E-01
DAV:   6    -0.577475989225E+02    0.35274E-02   -0.28528E-02  2802   0.499E+00    0.287E-01
DAV:   7    -0.577462697346E+02    0.13292E-02   -0.12088E-02  3065   0.228E+00    0.985E-02
DAV:   8    -0.577463019478E+02   -0.32213E-04   -0.37613E-03  3097   0.720E-01    0.646E-02
DAV:   9    -0.577463239164E+02   -0.21969E-04   -0.82066E-04  2784   0.569E-01    0.561E-02
DAV:  10    -0.577463573757E+02   -0.33459E-04   -0.30608E-04  2734   0.366E-01    0.242E-02
DAV:  11    -0.577464622385E+02   -0.10486E-03   -0.16614E-04  3124   0.126E-01    0.151E-02
DAV:  12    -0.577465850239E+02   -0.12279E-03   -0.48254E-05  2702   0.906E-02    0.113E-02
DAV:  13    -0.577466884137E+02   -0.10339E-03   -0.21671E-05  2532   0.931E-02    0.918E-03
DAV:  14    -0.577468381776E+02   -0.14976E-03   -0.17289E-05  3073   0.538E-02    0.499E-03
DAV:  15    -0.577469414753E+02   -0.10330E-03   -0.89128E-06  2355   0.300E-02    0.334E-03
DAV:  16    -0.577470176010E+02   -0.76126E-04   -0.42016E-06  1885   0.327E-02    0.339E-03
DAV:  17    -0.577470732523E+02   -0.55651E-04   -0.31690E-06  1893   0.241E-02    0.141E-03
DAV:  18    -0.577471090819E+02   -0.35830E-04   -0.22221E-06  1749   0.108E-02    0.147E-03
DAV:  19    -0.577471214333E+02   -0.12351E-04   -0.77345E-07  1561   0.120E-02    0.114E-03
DAV:  20    -0.577471413620E+02   -0.19929E-04   -0.77650E-07  1540   0.980E-03    0.120E-03
DAV:  21    -0.577471470308E+02   -0.56688E-05   -0.36927E-07  1490   0.709E-03    0.443E-04
DAV:  22    -0.577471510011E+02   -0.39703E-05   -0.20406E-07  1444   0.448E-03    0.475E-04
DAV:  23    -0.577471532468E+02   -0.22457E-05   -0.13264E-07  1442   0.393E-03    0.287E-04
DAV:  24    -0.577471553527E+02   -0.21060E-05   -0.77500E-08  1399   0.256E-03    0.250E-04
DAV:  25    -0.577471559847E+02   -0.63202E-06   -0.36461E-08  1392   0.220E-03
   4 F= -.57747156E+02 E0= -.57719807E+02  d E =-.941864E-01
       N       E                     dE             d eps       ncg     rms          rms(c)
DAV:   1    -0.577761136323E+02   -0.28958E-01   -0.14125E+00  2234   0.296E+00    0.434E-01
DAV:   2    -0.577837282610E+02   -0.76146E-02   -0.10083E-01  3612   0.204E+00    0.397E-01
DAV:   3    -0.577840426873E+02   -0.31443E-03   -0.92731E-02  3011   0.439E+00    0.389E-01
DAV:   4    -0.577801840036E+02    0.38587E-02   -0.42051E-02  2754   0.365E+00    0.181E-01
DAV:   5    -0.577794143405E+02    0.76966E-03   -0.29550E-03  3079   0.119E+00    0.805E-02
DAV:   6    -0.577793318417E+02    0.82499E-04   -0.12234E-03  2804   0.980E-01    0.604E-02
DAV:   7    -0.577792959606E+02    0.35881E-04   -0.47020E-04  2986   0.462E-01    0.229E-02
DAV:   8    -0.577793181591E+02   -0.22198E-04   -0.15946E-04  3102   0.147E-01    0.136E-02
DAV:   9    -0.577793380559E+02   -0.19897E-04   -0.35760E-05  2690   0.119E-01    0.116E-02
DAV:  10    -0.577793517275E+02   -0.13672E-04   -0.13412E-05  2402   0.813E-02    0.519E-03
DAV:  11    -0.577793732560E+02   -0.21529E-04   -0.57924E-06  1726   0.276E-02    0.309E-03
DAV:  12    -0.577793932926E+02   -0.20037E-04   -0.44173E-06  2074   0.262E-02    0.291E-03
DAV:  13    -0.577794049859E+02   -0.11693E-04   -0.13399E-06  1545   0.212E-02    0.185E-03
DAV:  14    -0.577794273804E+02   -0.22395E-04   -0.19442E-06  1583   0.132E-02    0.144E-03
DAV:  15    -0.577794352757E+02   -0.78953E-05   -0.84729E-07  1513   0.115E-02    0.107E-03
DAV:  16    -0.577794427107E+02   -0.74350E-05   -0.58021E-07  1476   0.963E-03    0.971E-04
DAV:  17    -0.577794493514E+02   -0.66407E-05   -0.52950E-07  1501   0.664E-03    0.516E-04
DAV:  18    -0.577794530209E+02   -0.36696E-05   -0.28824E-07  1430   0.487E-03    0.513E-04
DAV:  19    -0.577794547210E+02   -0.17000E-05   -0.14767E-07  1450   0.425E-03    0.321E-04
DAV:  20    -0.577794568685E+02   -0.21475E-05   -0.10602E-07  1408   0.275E-03    0.272E-04
DAV:  21    -0.577794587138E+02   -0.18453E-05   -0.85652E-08  1437   0.283E-03    0.256E-04
DAV:  22    -0.577794590390E+02   -0.32521E-06   -0.37289E-08  1416   0.166E-03
   5 F= -.57779459E+02 E0= -.57752069E+02  d E =-.126489E+00
       N       E                     dE             d eps       ncg     rms          rms(c)
DAV:   1    -0.577805536713E+02   -0.10950E-02   -0.79044E-02  2262   0.668E-01    0.105E-01
DAV:   2    -0.577808934066E+02   -0.33974E-03   -0.49445E-03  3576   0.459E-01    0.878E-02
DAV:   3    -0.577809827327E+02   -0.89326E-04   -0.55194E-03  2831   0.109E+00    0.978E-02
DAV:   4    -0.577807154425E+02    0.26729E-03   -0.25780E-03  2747   0.908E-01    0.400E-02
DAV:   5    -0.577806764552E+02    0.38987E-04   -0.13906E-04  3007   0.266E-01    0.164E-02
DAV:   6    -0.577806737694E+02    0.26858E-05   -0.57470E-05  2789   0.201E-01    0.133E-02
DAV:   7    -0.577806723004E+02    0.14690E-05   -0.21190E-05  2688   0.992E-02    0.500E-03
DAV:   8    -0.577806743869E+02   -0.20865E-05   -0.68960E-06  2152   0.325E-02    0.313E-03
DAV:   9    -0.577806758717E+02   -0.14848E-05   -0.17798E-06  1472   0.286E-02    0.240E-03
DAV:  10    -0.577806771843E+02   -0.13126E-05   -0.69177E-07  1391   0.166E-02    0.102E-03
DAV:  11    -0.577806790145E+02   -0.18301E-05   -0.48521E-07  1448   0.595E-03    0.845E-04
DAV:  12    -0.577806808396E+02   -0.18251E-05   -0.32948E-07  1395   0.801E-03    0.814E-04
DAV:  13    -0.577806821656E+02   -0.13261E-05   -0.19582E-07  1435   0.574E-03    0.427E-04
DAV:  14    -0.577806837817E+02   -0.16160E-05   -0.19579E-07  1367   0.343E-03    0.376E-04
DAV:  15    -0.577806843756E+02   -0.59392E-06   -0.10164E-07  1411   0.331E-03
   6 F= -.57780684E+02 E0= -.57753285E+02  d E =-.127715E+00
       N       E                     dE             d eps       ncg     rms          rms(c)
DAV:   1    -0.578180095411E+02   -0.37326E-01   -0.41487E+01  2241   0.193E+01    0.842E-01
DAV:   2    -0.579244945655E+02   -0.10649E+00   -0.11397E+00  3380   0.755E+00    0.949E-01
DAV:   3    -0.579146316165E+02    0.98629E-02   -0.52137E-02  2660   0.357E+00    0.458E-01
DAV:   4    -0.579147914645E+02   -0.15985E-03   -0.16865E-02  2849   0.261E+00    0.367E-01
DAV:   5    -0.579158096463E+02   -0.10182E-02   -0.37596E-02  2876   0.359E+00    0.337E-01
DAV:   6    -0.579153620030E+02    0.44764E-03   -0.55970E-02  2905   0.395E+00    0.243E-01
DAV:   7    -0.579138934824E+02    0.14685E-02   -0.21022E-02  4087   0.215E+00    0.589E-02
DAV:   8    -0.579138235219E+02    0.69960E-04   -0.19290E-03  3497   0.620E-01    0.460E-02
DAV:   9    -0.579138201779E+02    0.33440E-05   -0.34941E-04  2672   0.282E-01    0.292E-02
DAV:  10    -0.579138105081E+02    0.96698E-05   -0.13618E-04  2801   0.186E-01    0.156E-02
DAV:  11    -0.579138103616E+02    0.14654E-06   -0.37469E-05  3258   0.812E-02    0.541E-03
DAV:  12    -0.579138115837E+02   -0.12222E-05   -0.76158E-06  2314   0.568E-02    0.490E-03
DAV:  13    -0.579138121403E+02   -0.55658E-06   -0.26100E-06  1570   0.383E-02
   7 F= -.57913812E+02 E0= -.57886206E+02  d E =-.133128E+00
       N       E                     dE             d eps       ncg     rms          rms(c)
DAV:   1    -0.576274951214E+02    0.28632E+00   -0.14792E+02  2241   0.373E+01    0.155E+00
DAV:   2    -0.580480280959E+02   -0.42053E+00   -0.44457E+00  3388   0.144E+01    0.172E+00
DAV:   3    -0.580156852266E+02    0.32343E-01   -0.16922E-01  2746   0.763E+00    0.839E-01
DAV:   4    -0.580150429851E+02    0.64224E-03   -0.41726E-02  3128   0.398E+00    0.657E-01
DAV:   5    -0.580184232151E+02   -0.33802E-02   -0.87224E-02  2882   0.559E+00    0.547E-01
DAV:   6    -0.580200706200E+02   -0.16474E-02   -0.20607E-01  3319   0.685E+00    0.570E-01
DAV:   7    -0.580119135639E+02    0.81571E-02   -0.53832E-02  3493   0.407E+00    0.932E-02
DAV:   8    -0.580122639991E+02   -0.35044E-03   -0.53783E-03  3536   0.110E+00    0.892E-02
DAV:   9    -0.580122543113E+02    0.96878E-05   -0.12649E-03  2658   0.522E-01    0.546E-02
DAV:  10    -0.580122156142E+02    0.38697E-04   -0.52248E-04  2952   0.305E-01    0.252E-02
DAV:  11    -0.580122196656E+02   -0.40514E-05   -0.98982E-05  2922   0.184E-01    0.155E-02
DAV:  12    -0.580122221974E+02   -0.25318E-05   -0.35320E-05  2610   0.147E-01    0.957E-03
DAV:  13    -0.580122250204E+02   -0.28230E-05   -0.10821E-05  2435   0.594E-02    0.280E-03
DAV:  14    -0.580122274465E+02   -0.24262E-05   -0.27404E-06  1667   0.218E-02    0.270E-03
DAV:  15    -0.580122284727E+02   -0.10261E-05   -0.13033E-06  1456   0.205E-02    0.168E-03
DAV:  16    -0.580122299755E+02   -0.15029E-05   -0.50581E-07  1423   0.951E-03    0.664E-04
DAV:  17    -0.580122307998E+02   -0.82425E-06   -0.24876E-07  1425   0.458E-03
   8 F= -.58012231E+02 E0= -.57984248E+02  d E =-.231546E+00
       N       E                     dE             d eps       ncg     rms          rms(c)
DAV:   1    -0.579860003881E+02    0.26230E-01   -0.60369E+01  2248   0.243E+01    0.122E+00
DAV:   2    -0.581597122942E+02   -0.17371E+00   -0.19247E+00  3383   0.881E+00    0.133E+00
DAV:   3    -0.581432268950E+02    0.16485E-01   -0.36424E-01  3199   0.743E+00    0.964E-01
DAV:   4    -0.581345921027E+02    0.86348E-02   -0.24809E-01  2639   0.809E+00    0.626E-01
DAV:   5    -0.581301622205E+02    0.44299E-02   -0.48793E-02  3728   0.327E+00    0.323E-01
DAV:   6    -0.581313226376E+02   -0.11604E-02   -0.17905E-02  2954   0.326E+00    0.283E-01
DAV:   7    -0.581302640665E+02    0.10586E-02   -0.92737E-03  2818   0.237E+00    0.672E-02
DAV:   8    -0.581303973017E+02   -0.13324E-03   -0.18604E-03  3458   0.746E-01    0.499E-02
DAV:   9    -0.581304141951E+02   -0.16893E-04   -0.51386E-04  2672   0.396E-01    0.310E-02
DAV:  10    -0.581304379868E+02   -0.23792E-04   -0.13194E-04  2819   0.166E-01    0.173E-02
DAV:  11    -0.581304604450E+02   -0.22458E-04   -0.40649E-05  2744   0.133E-01    0.112E-02
DAV:  12    -0.581304728710E+02   -0.12426E-04   -0.15686E-05  2434   0.866E-02    0.350E-03
DAV:  13    -0.581304845507E+02   -0.11680E-04   -0.40775E-06  2072   0.252E-02    0.273E-03
DAV:  14    -0.581304918010E+02   -0.72503E-05   -0.14340E-06  1547   0.225E-02    0.177E-03
DAV:  15    -0.581305012361E+02   -0.94351E-05   -0.91031E-07  1541   0.101E-02    0.105E-03
DAV:  16    -0.581305103661E+02   -0.91300E-05   -0.91825E-07  1587   0.814E-03    0.102E-03
DAV:  17    -0.581305144234E+02   -0.40574E-05   -0.43359E-07  1483   0.813E-03    0.699E-04
DAV:  18    -0.581305195033E+02   -0.50799E-05   -0.48831E-07  1542   0.514E-03    0.484E-04
DAV:  19    -0.581305224228E+02   -0.29195E-05   -0.32015E-07  1491   0.478E-03    0.499E-04
DAV:  20    -0.581305236953E+02   -0.12725E-05   -0.16240E-07  1429   0.402E-03    0.325E-04
DAV:  21    -0.581305241467E+02   -0.45143E-06   -0.87475E-08  1417   0.228E-03
   9 F= -.58130524E+02 E0= -.58102873E+02  d E =-.118293E+00
       N       E                     dE             d eps       ncg     rms          rms(c)
DAV:   1    -0.574819838806E+02    0.64854E+00   -0.27337E+02  2255   0.545E+01    0.265E+00
DAV:   2    -0.583632042254E+02   -0.88122E+00   -0.96060E+00  3404   0.191E+01    0.299E+00
DAV:   3    -0.583077839948E+02    0.55420E-01   -0.25474E+00  3362   0.198E+01    0.232E+00
DAV:   4    -0.582183442324E+02    0.89440E-01   -0.12947E+00  2705   0.179E+01    0.125E+00
DAV:   5    -0.582075808561E+02    0.10763E-01   -0.16059E-01  3744   0.545E+00    0.730E-01
DAV:   6    -0.582104401582E+02   -0.28593E-02   -0.68299E-02  2971   0.550E+00    0.522E-01
DAV:   7    -0.582072031579E+02    0.32370E-02   -0.34426E-02  2762   0.470E+00    0.186E-01
DAV:   8    -0.582074772807E+02   -0.27412E-03   -0.77476E-03  3280   0.169E+00    0.893E-02
DAV:   9    -0.582076038784E+02   -0.12660E-03   -0.24314E-03  2648   0.848E-01    0.615E-02
DAV:  10    -0.582076675830E+02   -0.63705E-04   -0.65188E-04  2771   0.405E-01    0.393E-02
DAV:  11    -0.582077389721E+02   -0.71389E-04   -0.21667E-04  2802   0.274E-01    0.228E-02
DAV:  12    -0.582077619358E+02   -0.22964E-04   -0.74522E-05  2768   0.187E-01    0.722E-03
DAV:  13    -0.582077895915E+02   -0.27656E-04   -0.20152E-05  2556   0.570E-02    0.481E-03
DAV:  14    -0.582078052153E+02   -0.15624E-04   -0.56122E-06  2168   0.370E-02    0.356E-03
DAV:  15    -0.582078210095E+02   -0.15794E-04   -0.22584E-06  1644   0.232E-02    0.310E-03
DAV:  16    -0.582078400893E+02   -0.19080E-04   -0.25147E-06  1728   0.191E-02    0.150E-03
DAV:  17    -0.582078528708E+02   -0.12782E-04   -0.16208E-06  1659   0.104E-02    0.121E-03
DAV:  18    -0.582078600618E+02   -0.71910E-05   -0.77667E-07  1568   0.110E-02    0.105E-03
DAV:  19    -0.582078709530E+02   -0.10891E-04   -0.12788E-06  1557   0.829E-03    0.702E-04
DAV:  20    -0.582078765843E+02   -0.56313E-05   -0.88912E-07  1601   0.521E-03    0.636E-04
DAV:  21    -0.582078776235E+02   -0.10392E-05   -0.26195E-07  1504   0.499E-03    0.422E-04
DAV:  22    -0.582078791720E+02   -0.15485E-05   -0.14993E-07  1420   0.355E-03    0.324E-04
DAV:  23    -0.582078797626E+02   -0.59063E-06   -0.82221E-08  1432   0.285E-03
  10 F= -.58207880E+02 E0= -.58181579E+02  d E =-.195649E+00
       N       E                     dE             d eps       ncg     rms          rms(c)
DAV:   1    -0.581881032188E+02    0.19776E-01   -0.12728E+01  2248   0.110E+01    0.507E-01
DAV:   2    -0.582200235570E+02   -0.31920E-01   -0.35457E-01  3441   0.434E+00    0.596E-01
DAV:   3    -0.582201886105E+02   -0.16505E-03   -0.20699E-01  2928   0.631E+00    0.533E-01
DAV:   4    -0.582131185905E+02    0.70700E-02   -0.64540E-02  2866   0.398E+00    0.221E-01
DAV:   5    -0.582133837378E+02   -0.26515E-03   -0.59351E-03  3240   0.119E+00    0.146E-01
DAV:   6    -0.582133576346E+02    0.26103E-04   -0.26356E-03  2786   0.117E+00    0.746E-02
DAV:   7    -0.582133863333E+02   -0.28699E-04   -0.10968E-03  2723   0.865E-01    0.519E-02
DAV:   8    -0.582133559581E+02    0.30375E-04   -0.37027E-04  2812   0.441E-01    0.132E-02
DAV:   9    -0.582133640453E+02   -0.80873E-05   -0.94939E-05  3064   0.129E-01    0.129E-02
DAV:  10    -0.582133649809E+02   -0.93560E-06   -0.19541E-05  2379   0.761E-02    0.663E-03
DAV:  11    -0.582133677476E+02   -0.27667E-05   -0.68619E-06  2377   0.349E-02    0.346E-03
DAV:  12    -0.582133689059E+02   -0.11583E-05   -0.23001E-06  1474   0.319E-02    0.206E-03
DAV:  13    -0.582133696121E+02   -0.70623E-06   -0.77851E-07  1359   0.157E-02
  11 F= -.58213370E+02 E0= -.58186718E+02  d E =-.201139E+00
       N       E                     dE             d eps       ncg     rms          rms(c)
DAV:   1    -0.581905994261E+02    0.22769E-01   -0.19403E+01  2227   0.135E+01    0.825E-01
DAV:   2    -0.582441993878E+02   -0.53600E-01   -0.57900E-01  3336   0.578E+00    0.657E-01
DAV:   3    -0.582555171783E+02   -0.11318E-01   -0.27533E-01  2662   0.871E+00    0.792E-01
DAV:   4    -0.582404201321E+02    0.15097E-01   -0.22809E-01  3115   0.671E+00    0.365E-01
DAV:   5    -0.582376740656E+02    0.27461E-02   -0.29435E-02  3815   0.214E+00    0.162E-01
DAV:   6    -0.582377955292E+02   -0.12146E-03   -0.59519E-03  3264   0.987E-01    0.793E-02
DAV:   7    -0.582378315641E+02   -0.36035E-04   -0.13993E-03  2800   0.787E-01    0.567E-02
DAV:   8    -0.582378268321E+02    0.47320E-05   -0.45824E-04  2754   0.425E-01    0.243E-02
DAV:   9    -0.582378552865E+02   -0.28454E-04   -0.10330E-04  3126   0.203E-01    0.168E-02
DAV:  10    -0.582378740923E+02   -0.18806E-04   -0.50836E-05  2665   0.159E-01    0.104E-02
DAV:  11    -0.582379112235E+02   -0.37131E-04   -0.16557E-05  2617   0.728E-02    0.577E-03
DAV:  12    -0.582379300191E+02   -0.18796E-04   -0.65305E-06  2360   0.554E-02    0.376E-03
DAV:  13    -0.582379474643E+02   -0.17445E-04   -0.21997E-06  1626   0.272E-02    0.207E-03
DAV:  14    -0.582379731764E+02   -0.25712E-04   -0.20523E-06  1620   0.133E-02    0.200E-03
DAV:  15    -0.582379911729E+02   -0.17997E-04   -0.14796E-06  1650   0.185E-02    0.164E-03
DAV:  16    -0.582380077052E+02   -0.16532E-04   -0.14996E-06  1615   0.121E-02    0.892E-04
DAV:  17    -0.582380201370E+02   -0.12432E-04   -0.11561E-06  1626   0.951E-03    0.122E-03
DAV:  18    -0.582380227621E+02   -0.26252E-05   -0.45225E-07  1506   0.782E-03    0.594E-04
DAV:  19    -0.582380261367E+02   -0.33746E-05   -0.28658E-07  1404   0.416E-03    0.503E-04
DAV:  20    -0.582380286158E+02   -0.24791E-05   -0.16275E-07  1473   0.333E-03    0.397E-04
DAV:  21    -0.582380294813E+02   -0.86549E-06   -0.78153E-08  1424   0.291E-03
  12 F= -.58238029E+02 E0= -.58211537E+02  d E =-.246599E-01
       N       E                     dE             d eps       ncg     rms          rms(c)
DAV:   1    -0.582385614676E+02   -0.53285E-03   -0.97508E-01  2220   0.297E+00    0.175E-01
DAV:   2    -0.582405956273E+02   -0.20342E-02   -0.23305E-02  3371   0.942E-01    0.119E-01
DAV:   3    -0.582413926632E+02   -0.79704E-03   -0.13147E-02  2711   0.177E+00    0.195E-01
DAV:   4    -0.582404667265E+02    0.92594E-03   -0.10701E-02  2863   0.150E+00    0.656E-02
DAV:   5    -0.582404227833E+02    0.43943E-04   -0.11553E-03  3504   0.580E-01    0.411E-02
DAV:   6    -0.582404063702E+02    0.16413E-04   -0.30785E-04  3128   0.413E-01    0.204E-02
DAV:   7    -0.582404100435E+02   -0.36733E-05   -0.82743E-05  2889   0.173E-01    0.107E-02
DAV:   8    -0.582404142076E+02   -0.41641E-05   -0.25588E-05  2612   0.872E-02    0.585E-03
DAV:   9    -0.582404188042E+02   -0.45966E-05   -0.69595E-06  2290   0.534E-02    0.370E-03
DAV:  10    -0.582404234594E+02   -0.46552E-05   -0.31075E-06  1454   0.287E-02    0.206E-03
DAV:  11    -0.582404269457E+02   -0.34863E-05   -0.94044E-07  1529   0.130E-02    0.134E-03
DAV:  12    -0.582404298664E+02   -0.29207E-05   -0.67849E-07  1476   0.126E-02    0.951E-04
DAV:  13    -0.582404319305E+02   -0.20641E-05   -0.34388E-07  1456   0.650E-03    0.556E-04
DAV:  14    -0.582404367594E+02   -0.48288E-05   -0.65704E-07  1559   0.754E-03    0.970E-04
DAV:  15    -0.582404384026E+02   -0.16433E-05   -0.26558E-07  1496   0.513E-03    0.657E-04
DAV:  16    -0.582404389805E+02   -0.57791E-06   -0.13387E-07  1416   0.345E-03
  13 F= -.58240439E+02 E0= -.58213912E+02  d E =-.270694E-01
       N       E                     dE             d eps       ncg     rms          rms(c)
DAV:   1    -0.582439719631E+02   -0.35336E-02   -0.31394E-01  2304   0.175E+00    0.483E-02
DAV:   2    -0.582446542118E+02   -0.68225E-03   -0.72134E-03  3734   0.745E-01    0.845E-02
DAV:   3    -0.582445592326E+02    0.94979E-04   -0.27714E-03  2714   0.778E-01    0.452E-02
DAV:   4    -0.582445382099E+02    0.21023E-04   -0.33751E-04  2612   0.301E-01    0.252E-02
DAV:   5    -0.582445432160E+02   -0.50060E-05   -0.87077E-05  2768   0.145E-01    0.191E-02
DAV:   6    -0.582445442564E+02   -0.10405E-05   -0.56153E-05  2810   0.153E-01    0.110E-02
DAV:   7    -0.582445432974E+02    0.95900E-06   -0.18583E-05  2857   0.882E-02    0.389E-03
DAV:   8    -0.582445431249E+02    0.17253E-06   -0.38734E-06  1461   0.321E-02
  14 F= -.58244543E+02 E0= -.58218058E+02  d E =-.410414E-02
       N       E                     dE             d eps       ncg     rms          rms(c)
DAV:   1    -0.582494762871E+02   -0.49330E-02   -0.28243E+00  2255   0.526E+00    0.151E-01
DAV:   2    -0.582558603449E+02   -0.63841E-02   -0.67833E-02  3584   0.213E+00    0.254E-01
DAV:   3    -0.582551365247E+02    0.72382E-03   -0.26704E-02  2712   0.240E+00    0.161E-01
DAV:   4    -0.582547855112E+02    0.35101E-03   -0.36892E-03  2655   0.104E+00    0.774E-02
DAV:   5    -0.582548158946E+02   -0.30383E-04   -0.78607E-04  2971   0.420E-01    0.597E-02
DAV:   6    -0.582548248348E+02   -0.89401E-05   -0.54551E-04  2754   0.535E-01    0.412E-02
DAV:   7    -0.582548093267E+02    0.15508E-04   -0.22748E-04  3560   0.299E-01    0.116E-02
DAV:   8    -0.582548102250E+02   -0.89832E-06   -0.50374E-05  3406   0.102E-01    0.846E-03
DAV:   9    -0.582548099707E+02    0.25428E-06   -0.10674E-05  2209   0.577E-02    0.508E-03
DAV:  10    -0.582548099468E+02    0.23923E-07   -0.34387E-06  1435   0.242E-02
  15 F= -.58254810E+02 E0= -.58228451E+02  d E =-.143710E-01
       N       E                     dE             d eps       ncg     rms          rms(c)
DAV:   1    -0.582434399917E+02    0.11370E-01   -0.11299E+01  2255   0.106E+01    0.323E-01
DAV:   2    -0.582712657228E+02   -0.27826E-01   -0.29759E-01  3543   0.430E+00    0.531E-01
DAV:   3    -0.582684167199E+02    0.28490E-02   -0.11780E-01  2721   0.502E+00    0.370E-01
DAV:   4    -0.582662036936E+02    0.22130E-02   -0.18918E-02  2701   0.235E+00    0.166E-01
DAV:   5    -0.582663540742E+02   -0.15038E-03   -0.37416E-03  3309   0.856E-01    0.131E-01
DAV:   6    -0.582663409043E+02    0.13170E-04   -0.22143E-03  2757   0.108E+00    0.815E-02
DAV:   7    -0.582662976007E+02    0.43304E-04   -0.83514E-04  3464   0.551E-01    0.272E-02
DAV:   8    -0.582663048668E+02   -0.72662E-05   -0.20610E-04  3282   0.253E-01    0.175E-02
DAV:   9    -0.582663041689E+02    0.69800E-06   -0.52027E-05  2681   0.134E-01    0.109E-02
DAV:  10    -0.582663041693E+02   -0.46566E-09   -0.15872E-05  2452   0.486E-02    0.696E-03
DAV:  11    -0.582663038067E+02    0.36258E-06   -0.74290E-06  2000   0.329E-02
  16 F= -.58266304E+02 E0= -.58240182E+02  d E =-.258648E-01
       N       E                     dE             d eps       ncg     rms          rms(c)
DAV:   1    -0.582634394406E+02    0.28647E-02   -0.21559E+00  2255   0.459E+00    0.130E-01
DAV:   2    -0.582681951166E+02   -0.47557E-02   -0.50518E-02  3561   0.182E+00    0.217E-01
DAV:   3    -0.582676968102E+02    0.49831E-03   -0.19801E-02  2693   0.206E+00    0.139E-01
DAV:   4    -0.582674321478E+02    0.26466E-03   -0.27354E-03  2620   0.901E-01    0.669E-02
DAV:   5    -0.582674568194E+02   -0.24672E-04   -0.57852E-04  2949   0.361E-01    0.514E-02
DAV:   6    -0.582674702567E+02   -0.13437E-04   -0.40403E-04  2763   0.453E-01    0.350E-02
DAV:   7    -0.582674588934E+02    0.11363E-04   -0.16742E-04  3544   0.263E-01    0.963E-03
DAV:   8    -0.582674597292E+02   -0.83577E-06   -0.35751E-05  3316   0.901E-02    0.733E-03
DAV:   9    -0.582674596140E+02    0.11516E-06   -0.77719E-06  2169   0.493E-02
  17 F= -.58267460E+02 E0= -.58241440E+02  d E =-.270206E-01
       N       E                     dE             d eps       ncg     rms          rms(c)
DAV:   1    -0.582680233972E+02   -0.56367E-03   -0.84185E-01  2241   0.292E+00    0.102E-01
DAV:   2    -0.582696315391E+02   -0.16081E-02   -0.17326E-02  3291   0.874E-01    0.867E-02
DAV:   3    -0.582695954326E+02    0.36106E-04   -0.99110E-04  2660   0.620E-01    0.627E-02
DAV:   4    -0.582696414487E+02   -0.46016E-04   -0.15158E-03  2759   0.620E-01    0.702E-02
DAV:   5    -0.582695583401E+02    0.83109E-04   -0.15883E-03  2792   0.603E-01    0.388E-02
DAV:   6    -0.582695327990E+02    0.25541E-04   -0.44231E-04  4120   0.228E-01    0.143E-02
DAV:   7    -0.582695280313E+02    0.47677E-05   -0.69632E-05  3417   0.662E-02    0.739E-03
DAV:   8    -0.582695290472E+02   -0.10160E-05   -0.11529E-05  2472   0.499E-02    0.493E-03
DAV:   9    -0.582695300140E+02   -0.96671E-06   -0.37677E-06  1885   0.411E-02
  18 F= -.58269530E+02 E0= -.58243470E+02  d E =-.207040E-02
       N       E                     dE             d eps       ncg     rms          rms(c)
DAV:   1    -0.582695023424E+02    0.26705E-04   -0.90595E-02  2283   0.957E-01    0.342E-02
DAV:   2    -0.582696730091E+02   -0.17067E-03   -0.18484E-03  3328   0.306E-01    0.304E-02
DAV:   3    -0.582696670519E+02    0.59572E-05   -0.10348E-04  2626   0.225E-01    0.197E-02
DAV:   4    -0.582696633948E+02    0.36571E-05   -0.31647E-05  2776   0.122E-01    0.125E-02
DAV:   5    -0.582696844974E+02   -0.21103E-04   -0.24747E-04  2529   0.217E-01    0.266E-02
DAV:   6    -0.582696615793E+02    0.22918E-04   -0.16284E-04  2525   0.187E-01    0.526E-03
DAV:   7    -0.582696625853E+02   -0.10059E-05   -0.55772E-06  2568   0.456E-02    0.224E-03
DAV:   8    -0.582696634606E+02   -0.87527E-06   -0.20771E-06  1444   0.208E-02
  19 F= -.58269663E+02 E0= -.58243590E+02  d E =-.220385E-02
       N       E                     dE             d eps       ncg     rms          rms(c)
DAV:   1    -0.582703197946E+02   -0.65721E-03   -0.60144E-02  2269   0.770E-01    0.209E-02
DAV:   2    -0.582704419767E+02   -0.12218E-03   -0.13228E-03  3415   0.292E-01    0.358E-02
DAV:   3    -0.582704263969E+02    0.15580E-04   -0.48946E-04  2688   0.321E-01    0.213E-02
DAV:   4    -0.582704226919E+02    0.37049E-05   -0.53587E-05  2625   0.126E-01    0.125E-02
DAV:   5    -0.582704236691E+02   -0.97716E-06   -0.14410E-05  2444   0.429E-02    0.804E-03
DAV:   6    -0.582704246833E+02   -0.10142E-05   -0.11201E-05  2422   0.665E-02    0.512E-03
DAV:   7    -0.582704247295E+02   -0.46188E-07   -0.19897E-06  1480   0.363E-02
  20 F= -.58270425E+02 E0= -.58244355E+02  d E =-.761269E-03
       N       E                     dE             d eps       ncg     rms          rms(c)
DAV:   1    -0.582710250466E+02   -0.60036E-03   -0.54130E-01  2241   0.231E+00    0.640E-02
DAV:   2    -0.582721631830E+02   -0.11381E-02   -0.12295E-02  3424   0.888E-01    0.113E-01
DAV:   3    -0.582719913954E+02    0.17179E-03   -0.45830E-03  2685   0.976E-01    0.673E-02
DAV:   4    -0.582719486342E+02    0.42761E-04   -0.56654E-04  2690   0.418E-01    0.391E-02
DAV:   5    -0.582719451956E+02    0.34386E-05   -0.12585E-04  2873   0.162E-01    0.266E-02
DAV:   6    -0.582719452894E+02   -0.93743E-07   -0.10627E-04  2804   0.250E-01    0.202E-02
DAV:   7    -0.582719405238E+02    0.47656E-05   -0.40926E-05  3113   0.150E-01    0.545E-03
DAV:   8    -0.582719408628E+02   -0.33903E-06   -0.11273E-05  2826   0.472E-02    0.390E-03
DAV:   9    -0.582719412055E+02   -0.34267E-06   -0.25881E-06  1608   0.281E-02
  21 F= -.58271941E+02 E0= -.58245864E+02  d E =-.227774E-02
       N       E                     dE             d eps       ncg     rms          rms(c)
DAV:   1    -0.582678195228E+02    0.41213E-02   -0.21642E+00  2241   0.463E+00    0.135E-01
DAV:   2    -0.582726133487E+02   -0.47938E-02   -0.52122E-02  3364   0.172E+00    0.230E-01
DAV:   3    -0.582719949925E+02    0.61836E-03   -0.20393E-02  2672   0.203E+00    0.158E-01
DAV:   4    -0.582716939741E+02    0.30102E-03   -0.30991E-03  2617   0.988E-01    0.821E-02
DAV:   5    -0.582716683913E+02    0.25583E-04   -0.61266E-04  3284   0.333E-01    0.569E-02
DAV:   6    -0.582716596090E+02    0.87823E-05   -0.41384E-04  2817   0.512E-01    0.415E-02
DAV:   7    -0.582716388222E+02    0.20787E-04   -0.18311E-04  3376   0.311E-01    0.120E-02
DAV:   8    -0.582716414768E+02   -0.26546E-05   -0.46079E-05  3434   0.115E-01    0.808E-03
DAV:   9    -0.582716430432E+02   -0.15664E-05   -0.10770E-05  2226   0.609E-02    0.517E-03
DAV:  10    -0.582716451545E+02   -0.21113E-05   -0.35012E-06  1799   0.254E-02    0.269E-03
DAV:  11    -0.582716478361E+02   -0.26816E-05   -0.15707E-06  1476   0.204E-02    0.197E-03
DAV:  12    -0.582716490611E+02   -0.12250E-05   -0.75023E-07  1488   0.158E-02    0.776E-04
DAV:  13    -0.582716505403E+02   -0.14792E-05   -0.46608E-07  1405   0.647E-03    0.770E-04
DAV:  14    -0.582716514862E+02   -0.94590E-06   -0.28754E-07  1480   0.674E-03
  22 F= -.58271651E+02 E0= -.58245575E+02  d E =-.198803E-02
       N       E                     dE             d eps       ncg     rms          rms(c)
DAV:   1    -0.582711813802E+02    0.46916E-03   -0.68799E-01  2248   0.260E+00    0.732E-02
DAV:   2    -0.582726795107E+02   -0.14981E-02   -0.16055E-02  3498   0.117E+00    0.138E-01
DAV:   3    -0.582724086221E+02    0.27089E-03   -0.62279E-03  2737   0.117E+00    0.702E-02
DAV:   4    -0.582723667042E+02    0.41918E-04   -0.77593E-04  2691   0.453E-01    0.449E-02
DAV:   5    -0.582723659250E+02    0.77926E-06   -0.19589E-04  2729   0.213E-01    0.326E-02
DAV:   6    -0.582723591696E+02    0.67554E-05   -0.12071E-04  2908   0.211E-01    0.135E-02
DAV:   7    -0.582723602817E+02   -0.11121E-05   -0.41004E-05  3016   0.132E-01    0.896E-03
DAV:   8    -0.582723590655E+02    0.12162E-05   -0.15153E-05  2258   0.767E-02    0.324E-03
DAV:   9    -0.582723592259E+02   -0.16033E-06   -0.32163E-06  1504   0.226E-02
  23 F= -.58272359E+02 E0= -.58246285E+02  d E =-.269577E-02
       N       E                     dE             d eps       ncg     rms          rms(c)
DAV:   1    -0.582724688581E+02   -0.10979E-03   -0.46998E-03  2325   0.214E-01    0.542E-03
DAV:   2    -0.582724788941E+02   -0.10036E-04   -0.10298E-04  3320   0.675E-02    0.721E-03
DAV:   3    -0.582724787510E+02    0.14310E-06   -0.15453E-05  2044   0.582E-02    0.577E-03
DAV:   4    -0.582724782449E+02    0.50609E-06   -0.67057E-06  1278   0.405E-02
  24 F= -.58272478E+02 E0= -.58246397E+02  d E =-.119019E-03
       N       E                     dE             d eps       ncg     rms          rms(c)
DAV:   1    -0.582727377734E+02   -0.25902E-03   -0.42407E-02  2255   0.641E-01    0.173E-02
DAV:   2    -0.582728194487E+02   -0.81675E-04   -0.85231E-04  3299   0.208E-01    0.191E-02
DAV:   3    -0.582728169708E+02    0.24779E-05   -0.36574E-05  2688   0.112E-01    0.116E-02
DAV:   4    -0.582728165469E+02    0.42393E-06   -0.77703E-06  2157   0.463E-02
  25 F= -.58272817E+02 E0= -.58246740E+02  d E =-.457321E-03
       N       E                     dE             d eps       ncg     rms          rms(c)
DAV:   1    -0.582730788859E+02   -0.26192E-03   -0.16925E-01  2241   0.128E+00    0.346E-02
DAV:   2    -0.582734577008E+02   -0.37881E-03   -0.40464E-03  3568   0.531E-01    0.598E-02
DAV:   3    -0.582734014355E+02    0.56265E-04   -0.16583E-03  2578   0.597E-01    0.386E-02
DAV:   4    -0.582733921377E+02    0.92978E-05   -0.14853E-04  2567   0.186E-01    0.211E-02
DAV:   5    -0.582733923949E+02   -0.25722E-06   -0.48873E-05  2655   0.802E-02    0.156E-02
DAV:   6    -0.582733911872E+02    0.12077E-05   -0.25229E-05  2841   0.111E-01    0.726E-03
DAV:   7    -0.582733905441E+02    0.64319E-06   -0.15983E-05  2786   0.663E-02    0.308E-03
DAV:   8    -0.582733904379E+02    0.10614E-06   -0.15641E-06  1306   0.242E-02
  26 F= -.58273390E+02 E0= -.58247293E+02  d E =-.103121E-02
       N       E                     dE             d eps       ncg     rms          rms(c)
DAV:   1    -0.582729236454E+02    0.46690E-03   -0.67683E-01  2234   0.256E+00    0.700E-02
DAV:   2    -0.582742487229E+02   -0.13251E-02   -0.13718E-02  3322   0.869E-01    0.795E-02
DAV:   3    -0.582742019623E+02    0.46761E-04   -0.64541E-04  2619   0.498E-01    0.429E-02
DAV:   4    -0.582741967773E+02    0.51850E-05   -0.12578E-04  2777   0.179E-01    0.344E-02
DAV:   5    -0.582742393957E+02   -0.42618E-04   -0.58620E-04  2804   0.333E-01    0.462E-02
DAV:   6    -0.582741872635E+02    0.52132E-04   -0.61253E-04  3136   0.362E-01    0.196E-02
DAV:   7    -0.582741839444E+02    0.33191E-05   -0.69765E-05  3916   0.138E-01    0.607E-03
DAV:   8    -0.582741842241E+02   -0.27963E-06   -0.96935E-06  2591   0.474E-02
  27 F= -.58274184E+02 E0= -.58248062E+02  d E =-.182500E-02
       N       E                     dE             d eps       ncg     rms          rms(c)
DAV:   1    -0.582691259199E+02    0.50580E-02   -0.27070E+00  2234   0.513E+00    0.148E-01
DAV:   2    -0.582747404530E+02   -0.56145E-02   -0.58428E-02  3336   0.185E+00    0.180E-01
DAV:   3    -0.582744577648E+02    0.28269E-03   -0.29066E-03  2574   0.109E+00    0.897E-02
DAV:   4    -0.582744547703E+02    0.29945E-05   -0.90889E-04  3166   0.454E-01    0.789E-02
DAV:   5    -0.582745189712E+02   -0.64201E-04   -0.22021E-03  2772   0.666E-01    0.818E-02
DAV:   6    -0.582743772455E+02    0.14173E-03   -0.12434E-03  3335   0.531E-01    0.372E-02
DAV:   7    -0.582743718165E+02    0.54290E-05   -0.20851E-04  3664   0.200E-01    0.119E-02
DAV:   8    -0.582743736031E+02   -0.17867E-05   -0.38367E-05  2705   0.771E-02    0.912E-03
DAV:   9    -0.582743732896E+02    0.31354E-06   -0.79008E-06  2161   0.517E-02
  28 F= -.58274373E+02 E0= -.58248209E+02  d E =-.201406E-02
       N       E                     dE             d eps       ncg     rms          rms(c)
DAV:   1    -0.582737149739E+02    0.65863E-03   -0.44691E-01  2234   0.208E+00    0.526E-02
DAV:   2    -0.582745465563E+02   -0.83158E-03   -0.85952E-03  3250   0.662E-01    0.568E-02
DAV:   3    -0.582745342036E+02    0.12353E-04   -0.42329E-04  2688   0.403E-01    0.354E-02
DAV:   4    -0.582745301265E+02    0.40772E-05   -0.11988E-04  2671   0.201E-01    0.297E-02
DAV:   5    -0.582745439774E+02   -0.13851E-04   -0.32114E-04  2703   0.271E-01    0.345E-02
DAV:   6    -0.582745220872E+02    0.21890E-04   -0.28245E-04  4229   0.199E-01    0.122E-02
DAV:   7    -0.582745203278E+02    0.17594E-05   -0.39469E-05  3418   0.668E-02    0.519E-03
DAV:   8    -0.582745204930E+02   -0.16516E-06   -0.70723E-06  2349   0.452E-02
  29 F= -.58274520E+02 E0= -.58248373E+02  d E =-.216127E-02
       N       E                     dE             d eps       ncg     rms          rms(c)
DAV:   1    -0.582744609900E+02    0.59338E-04   -0.13568E-01  2220   0.115E+00    0.444E-02
DAV:   2    -0.582747684846E+02   -0.30749E-03   -0.33314E-03  3281   0.407E-01    0.523E-02
DAV:   3    -0.582747675639E+02    0.92064E-06   -0.11873E-03  2678   0.498E-01    0.467E-02
DAV:   4    -0.582747302511E+02    0.37313E-04   -0.48227E-04  2669   0.354E-01    0.249E-02
DAV:   5    -0.582747227627E+02    0.74884E-05   -0.59890E-05  3215   0.144E-01    0.154E-02
DAV:   6    -0.582747208461E+02    0.19166E-05   -0.37664E-05  3024   0.130E-01    0.911E-03
DAV:   7    -0.582747199391E+02    0.90702E-06   -0.13245E-05  2464   0.778E-02    0.308E-03
DAV:   8    -0.582747202030E+02   -0.26391E-06   -0.26239E-06  1531   0.286E-02
  30 F= -.58274720E+02 E0= -.58248572E+02  d E =-.199710E-03
       N       E                     dE             d eps       ncg     rms          rms(c)
DAV:   1    -0.582747207472E+02   -0.80813E-06   -0.14058E-04  2523   0.417E-02    0.201E-03
DAV:   2    -0.582747213224E+02   -0.57518E-06   -0.36874E-06  1858   0.181E-02
  31 F= -.58274721E+02 E0= -.58248571E+02  d E =-.200829E-03
       N       E                     dE             d eps       ncg     rms          rms(c)
DAV:   1    -0.582747842737E+02   -0.63527E-04   -0.62171E-03  2283   0.246E-01    0.691E-03
DAV:   2    -0.582747980840E+02   -0.13810E-04   -0.14108E-04  3232   0.713E-02    0.761E-03
DAV:   3    -0.582747986900E+02   -0.60594E-06   -0.28790E-05  2461   0.820E-02    0.857E-03
DAV:   4    -0.582747977293E+02    0.96069E-06   -0.10274E-05  1447   0.487E-02    0.434E-03
DAV:   5    -0.582747978210E+02   -0.91677E-07   -0.17376E-06  1354   0.207E-02
  32 F= -.58274798E+02 E0= -.58248647E+02  d E =-.764986E-04
       N       E                     dE             d eps       ncg     rms          rms(c)
DAV:   1    -0.582748952243E+02   -0.97495E-04   -0.55711E-02  2248   0.734E-01    0.205E-02
DAV:   2    -0.582750101360E+02   -0.11491E-03   -0.11961E-03  3299   0.215E-01    0.221E-02
DAV:   3    -0.582750132038E+02   -0.30677E-05   -0.19868E-04  2705   0.198E-01    0.229E-02
DAV:   4    -0.582750054029E+02    0.78009E-05   -0.95070E-05  2570   0.152E-01    0.125E-02
DAV:   5    -0.582750045959E+02    0.80696E-06   -0.98935E-06  1931   0.619E-02
  33 F= -.58275005E+02 E0= -.58248842E+02  d E =-.283274E-03
       N       E                     dE             d eps       ncg     rms          rms(c)
DAV:   1    -0.582748887676E+02    0.11664E-03   -0.22283E-01  2234   0.147E+00    0.407E-02
DAV:   2    -0.582753431140E+02   -0.45435E-03   -0.47203E-03  3210   0.412E-01    0.397E-02
DAV:   3    -0.582753375096E+02    0.56044E-05   -0.17496E-04  2816   0.236E-01    0.286E-02
DAV:   4    -0.582753394812E+02   -0.19716E-05   -0.16850E-04  2825   0.206E-01    0.283E-02
DAV:   5    -0.582753339018E+02    0.55794E-05   -0.17901E-04  2658   0.198E-01    0.225E-02
DAV:   6    -0.582753258569E+02    0.80449E-05   -0.51915E-05  4024   0.931E-02    0.718E-03
DAV:   7    -0.582753258173E+02    0.39581E-07   -0.90879E-06  2702   0.586E-02
  34 F= -.58275326E+02 E0= -.58249139E+02  d E =-.604495E-03
       N       E                     dE             d eps       ncg     rms          rms(c)
DAV:   1    -0.582738803006E+02    0.14456E-02   -0.89147E-01  2227   0.294E+00    0.823E-02
DAV:   2    -0.582757095410E+02   -0.18292E-02   -0.18978E-02  3241   0.910E-01    0.918E-02
DAV:   3    -0.582757647581E+02   -0.55217E-04   -0.33492E-03  2690   0.887E-01    0.882E-02
DAV:   4    -0.582756398273E+02    0.12493E-03   -0.16693E-03  2741   0.616E-01    0.507E-02
DAV:   5    -0.582756244828E+02    0.15345E-04   -0.18354E-04  3397   0.241E-01    0.388E-02
DAV:   6    -0.582756093289E+02    0.15154E-04   -0.12176E-04  3464   0.143E-01    0.119E-02
DAV:   7    -0.582756103654E+02   -0.10364E-05   -0.36804E-05  2889   0.129E-01    0.827E-03
DAV:   8    -0.582756098746E+02    0.49072E-06   -0.81558E-06  2205   0.699E-02
  35 F= -.58275610E+02 E0= -.58249391E+02  d E =-.888552E-03
       N       E                     dE             d eps       ncg     rms          rms(c)
DAV:   1    -0.582755996234E+02    0.10742E-04   -0.60423E-03  2311   0.243E-01    0.785E-03
DAV:   2    -0.582756137063E+02   -0.14083E-04   -0.14260E-04  3320   0.741E-02    0.660E-03
DAV:   3    -0.582756138764E+02   -0.17014E-06   -0.73007E-06  2356   0.536E-02
  36 F= -.58275614E+02 E0= -.58249395E+02  d E =-.892554E-03
       N       E                     dE             d eps       ncg     rms          rms(c)
DAV:   1    -0.582756412627E+02   -0.27556E-04   -0.18186E-02  2241   0.412E-01    0.129E-02
DAV:   2    -0.582756836595E+02   -0.42397E-04   -0.44227E-04  3257   0.135E-01    0.145E-02
DAV:   3    -0.582756843751E+02   -0.71563E-06   -0.95736E-05  2591   0.144E-01    0.156E-02
DAV:   4    -0.582756810184E+02    0.33568E-05   -0.31117E-05  2191   0.881E-02    0.810E-03
DAV:   5    -0.582756807861E+02    0.23225E-06   -0.41562E-06  1584   0.384E-02
  37 F= -.58275681E+02 E0= -.58249457E+02  d E =-.669097E-04
       N       E                     dE             d eps       ncg     rms          rms(c)
DAV:   1    -0.582754707943E+02    0.21022E-03   -0.16343E-01  2220   0.123E+00    0.350E-02
DAV:   2    -0.582758249993E+02   -0.35420E-03   -0.36466E-03  3297   0.341E-01    0.334E-02
DAV:   3    -0.582758277770E+02   -0.27778E-05   -0.26305E-04  2760   0.218E-01    0.313E-02
DAV:   4    -0.582758189749E+02    0.88021E-05   -0.23680E-04  2763   0.230E-01    0.234E-02
DAV:   5    -0.582758133313E+02    0.56436E-05   -0.63808E-05  2965   0.145E-01    0.176E-02
DAV:   6    -0.582758102609E+02    0.30704E-05   -0.36092E-05  3468   0.120E-01    0.710E-03
DAV:   7    -0.582758094363E+02    0.82460E-06   -0.11323E-05  2657   0.561E-02    0.308E-03
DAV:   8    -0.582758095254E+02   -0.89029E-07   -0.19433E-06  1392   0.234E-02
  38 F= -.58275810E+02 E0= -.58249580E+02  d E =-.195649E-03
       N       E                     dE             d eps       ncg     rms          rms(c)
DAV:   1    -0.582758536899E+02   -0.44254E-04   -0.17335E-02  2220   0.398E-01    0.136E-02
DAV:   2    -0.582758979821E+02   -0.44292E-04   -0.47204E-04  3329   0.159E-01    0.195E-02
DAV:   3    -0.582758943604E+02    0.36217E-05   -0.18115E-04  2710   0.193E-01    0.144E-02
DAV:   4    -0.582758911132E+02    0.32472E-05   -0.31633E-05  2406   0.949E-02    0.706E-03
DAV:   5    -0.582758909399E+02    0.17328E-06   -0.44575E-06  2025   0.311E-02
  39 F= -.58275891E+02 E0= -.58249660E+02  d E =-.814146E-04
       N       E                     dE             d eps       ncg     rms          rms(c)
DAV:   1    -0.582756951688E+02    0.19594E-03   -0.13379E-01  2220   0.111E+00    0.369E-02
DAV:   2    -0.582760304400E+02   -0.33527E-03   -0.35746E-03  3284   0.424E-01    0.521E-02
DAV:   3    -0.582760061145E+02    0.24325E-04   -0.12460E-03  2686   0.506E-01    0.392E-02
DAV:   4    -0.582759823662E+02    0.23748E-04   -0.23650E-04  2775   0.258E-01    0.202E-02
DAV:   5    -0.582759802709E+02    0.20953E-05   -0.33661E-05  2906   0.941E-02    0.149E-02
DAV:   6    -0.582759782180E+02    0.20529E-05   -0.29270E-05  2885   0.117E-01    0.789E-03
DAV:   7    -0.582759777664E+02    0.45163E-06   -0.84124E-06  2376   0.641E-02
  40 F= -.58275978E+02 E0= -.58249727E+02  d E =-.168241E-03
       N       E                     dE             d eps       ncg     rms          rms(c)
DAV:   1    -0.582759874217E+02   -0.92037E-05   -0.11007E-02  2304   0.319E-01    0.916E-03
DAV:   2    -0.582760134420E+02   -0.26020E-04   -0.26346E-04  3320   0.967E-02    0.855E-03
DAV:   3    -0.582760143059E+02   -0.86383E-06   -0.30515E-05  2525   0.878E-02    0.900E-03
DAV:   4    -0.582760130690E+02    0.12369E-05   -0.19428E-05  1491   0.653E-02    0.510E-03
DAV:   5    -0.582760129083E+02    0.16071E-06   -0.25983E-06  1285   0.281E-02
  41 F= -.58276013E+02 E0= -.58249761E+02  d E =-.351419E-04
       N       E                     dE             d eps       ncg     rms          rms(c)
DAV:   1    -0.582758921644E+02    0.12090E-03   -0.99265E-02  2220   0.952E-01    0.249E-02
DAV:   2    -0.582761034698E+02   -0.21131E-03   -0.21569E-03  3243   0.289E-01    0.259E-02
DAV:   3    -0.582761132688E+02   -0.97990E-05   -0.36162E-04  2658   0.290E-01    0.285E-02
DAV:   4    -0.582760983860E+02    0.14883E-04   -0.15510E-04  2707   0.183E-01    0.142E-02
DAV:   5    -0.582760979194E+02    0.46659E-06   -0.30643E-05  3259   0.779E-02    0.113E-02
DAV:   6    -0.582760961347E+02    0.17847E-05   -0.15074E-05  2875   0.707E-02    0.380E-03
DAV:   7    -0.582760962517E+02   -0.11700E-06   -0.28432E-06  1547   0.229E-02
  42 F= -.58276096E+02 E0= -.58249844E+02  d E =-.118485E-03
       N       E                     dE             d eps       ncg     rms          rms(c)
DAV:   1    -0.582753022964E+02    0.79384E-03   -0.39675E-01  2220   0.190E+00    0.510E-02
DAV:   2    -0.582761514144E+02   -0.84912E-03   -0.86937E-03  3250   0.566E-01    0.479E-02
DAV:   3    -0.582761784303E+02   -0.27016E-04   -0.91796E-04  2680   0.476E-01    0.516E-02
DAV:   4    -0.582761390657E+02    0.39365E-04   -0.54507E-04  2786   0.351E-01    0.299E-02
DAV:   5    -0.582761334062E+02    0.56594E-05   -0.98958E-05  3460   0.166E-01    0.247E-02
DAV:   6    -0.582761261301E+02    0.72761E-05   -0.57254E-05  3795   0.121E-01    0.874E-03
DAV:   7    -0.582761262711E+02   -0.14095E-06   -0.13363E-05  2863   0.794E-02    0.619E-03
DAV:   8    -0.582761259065E+02    0.36455E-06   -0.37148E-06  1745   0.442E-02
  43 F= -.58276126E+02 E0= -.58249866E+02  d E =-.148140E-03
       N       E                     dE             d eps       ncg     rms          rms(c)
DAV:   1    -0.582759999543E+02    0.12632E-03   -0.69045E-02  2220   0.794E-01    0.208E-02
DAV:   2    -0.582761450914E+02   -0.14514E-03   -0.14892E-03  3236   0.261E-01    0.240E-02
DAV:   3    -0.582761485198E+02   -0.34284E-05   -0.21277E-04  2649   0.232E-01    0.218E-02
DAV:   4    -0.582761408993E+02    0.76204E-05   -0.10152E-04  2539   0.148E-01    0.130E-02
DAV:   5    -0.582761400216E+02    0.87774E-06   -0.17037E-05  2143   0.688E-02    0.105E-02
DAV:   6    -0.582761391739E+02    0.84765E-06   -0.12426E-05  3112   0.515E-02    0.350E-03
DAV:   7    -0.582761390967E+02    0.77212E-07   -0.20842E-06  1458   0.277E-02
  44 F= -.58276139E+02 E0= -.58249877E+02  d E =-.161330E-03
       N       E                     dE             d eps       ncg     rms          rms(c)
DAV:   1    -0.582761980094E+02   -0.58835E-04   -0.28094E-03  2220   0.151E-01    0.174E-02
DAV:   2    -0.582762114731E+02   -0.13464E-04   -0.18509E-04  3545   0.811E-02    0.182E-02
DAV:   3    -0.582762110357E+02    0.43746E-06   -0.20893E-04  2866   0.188E-01    0.176E-02
DAV:   4    -0.582762035246E+02    0.75111E-05   -0.73675E-05  2486   0.147E-01    0.716E-03
DAV:   5    -0.582762023539E+02    0.11707E-05   -0.36693E-06  1724   0.417E-02    0.285E-03
DAV:   6    -0.582762023180E+02    0.35914E-07   -0.22601E-06  1481   0.373E-02
  45 F= -.58276202E+02 E0= -.58249950E+02  d E =-.632212E-04
