 vasp.6.5.1 10Mar25 (build Mar 14 2026 15:48:08) complex                         
 executed on              LinuxNV date 2026.03.23  15:40:37
 running    1 mpi-ranks, with    1 threads/rank, on    1 nodes
 distrk:  each k-point on    1 cores,    1 groups
 distr:  one band on NCORE=   1 cores,    1 groups
 Offloading initialized ...    1 GPUs detected


--------------------------------------------------------------------------------------------------------


 INCAR:
   SYSTEM = Cu-Ag alloy CO adsorption (RPBE, matches CatHub)
   ENCUT = 450
   EDIFF = 1E-6
   ISMEAR = 0
   SIGMA = 0.1
   ALGO = Normal
   NELM = 200
   PREC = Normal
   GGA = RP
   IBRION = 2
   NSW = 200
   ISIF = 2
   EDIFFG = -0.03
   ISPIN = 1
   LREAL = Auto
   NPAR = 4
   LORBIT = 11
   LWAVE = .FALSE.
   LCHARG = .FALSE.

 POTCAR:    PAW_PBE Cu 22Jun2005                  
 POTCAR:    PAW_PBE Ag 02Apr2005                  
 POTCAR:    PAW_PBE Cu 22Jun2005                  
 POTCAR:    PAW_PBE Ag 02Apr2005                  
 POTCAR:    PAW_PBE Cu 22Jun2005                  
 POTCAR:    PAW_PBE Ag 02Apr2005                  
 POTCAR:    PAW_PBE Cu 22Jun2005                  
 POTCAR:    PAW_PBE Ag 02Apr2005                  
 POTCAR:    PAW_PBE C 08Apr2002                   
 POTCAR:    PAW_PBE O 08Apr2002                   
 POTCAR:    PAW_PBE Cu 22Jun2005                  
   SHA256 =  0e71e558f37a4e8407882b4609ceaae59938afaad9ced71dfe8490308a0ab630 Cu/POTCAR             
   COPYR  = (c) Copyright 22Jun2005 Georg Kresse                                                    
   COPYR  = This file is part of the software VASP. Any use, copying, and all other rights are regul
   COPYR  = If you do not have a valid VASP license, you may not use, copy or distribute this file. 
   VRHFIN =Cu: d10 p1                                                                               
   LEXCH  = PE                                                                                      
   EATOM  =  1390.9808 eV,  102.2342 Ry                                                             
                                                                                                    
   TITEL  = PAW_PBE Cu 22Jun2005                                                                    
   LULTRA =        F    use ultrasoft PP ?                                                          
   IUNSCR =        1    unscreen: 0-lin 1-nonlin 2-no                                               
   RPACOR =    2.000    partial core radius                                                         
   POMASS =   63.546; ZVAL   =   11.000    mass and valenz                                          
   RCORE  =    2.300    outmost cutoff radius                                                       
   RWIGS  =    2.200; RWIGS  =    1.164    wigner-seitz radius (au A)                               
   ENMAX  =  295.446; ENMIN  =  221.585 eV                                                          
   ICORE  =        3    local potential                                                             
   LCOR   =        T    correct aug charges                                                         
   LPAW   =        T    paw PP                                                                      
   EAUG   =  586.980                                                                                
   DEXC   =    0.000                                                                                
   RMAX   =    2.344    core radius for proj-oper                                                   
   RAUG   =    1.300    factor for augmentation sphere                                              
   RDEP   =    2.302    radius for radial grids                                                     
   RDEPT  =    1.771    core radius for aug-charge                                                  
                                                                                                    
   Atomic configuration                                                                             
    9 entries                                                                                       
     n  l   j            E        occ.                                                              
     1  0  0.50     -8850.2468   2.0000                                                             
     2  0  0.50     -1062.3498   2.0000                                                             
     2  1  1.50      -916.8226   6.0000                                                             
     3  0  0.50      -114.6929   2.0000                                                             
     3  1  1.50       -72.1325   6.0000                                                             
     3  2  2.50        -5.0394  10.0000                                                             
     4  0  0.50        -4.6097   1.0000                                                             
     4  1  0.50        -4.0817   0.0000                                                             
     4  3  2.50        -1.3606   0.0000                                                             
   Description                                                                                      
     l       E           TYP  RCUT    TYP  RCUT                                                     
     2     -5.0393973     23  2.200                                                                 
     2     10.8846608     23  2.200                                                                 
     0     -4.6097109     23  2.200                                                                 
     0      8.2520465     23  2.200                                                                 
     1     -2.7211652     23  2.200                                                                 
     1     21.7055443     23  2.200                                                                 
     3      2.7211652     23  2.300                                                                 
  local pseudopotential read in
  partial core-charges read in
  partial kinetic energy density read in
  atomic valenz-charges read in
  non local Contribution for L=            2  read in
    real space projection operators read in
  non local Contribution for L=            2  read in
    real space projection operators read in
  non local Contribution for L=            0  read in
    real space projection operators read in
  non local Contribution for L=            0  read in
    real space projection operators read in
  non local Contribution for L=            1  read in
    real space projection operators read in
  non local Contribution for L=            1  read in
    real space projection operators read in
    PAW grid and wavefunctions read in
 
   number of l-projection  operators is LMAX  =            6
   number of lm-projection operators is LMMAX =           18
 
 POTCAR:    PAW_PBE Ag 02Apr2005                  
   SHA256 =  6550cfa3543261e132c169e1b98a529204624d72be14e2da2e0242bcb74a174d Ag/POTCAR             
   COPYR  = (c) Copyright 02Apr2005 Georg Kresse                                                    
   COPYR  = This file is part of the software VASP. Any use, copying, and all other rights are regul
   COPYR  = If you do not have a valid VASP license, you may not use, copy or distribute this file. 
   VRHFIN =Ag : s1 d10                                                                              
   LEXCH  = PE                                                                                      
   EATOM  =  1037.2675 eV,   76.2370 Ry                                                             
                                                                                                    
   TITEL  = PAW_PBE Ag 02Apr2005                                                                    
   LULTRA =        F    use ultrasoft PP ?                                                          
   IUNSCR =        1    unscreen: 0-lin 1-nonlin 2-no                                               
   RPACOR =    2.000    partial core radius                                                         
   POMASS =  107.868; ZVAL   =   11.000    mass and valenz                                          
   RCORE  =    2.500    outmost cutoff radius                                                       
   RWIGS  =    2.840; RWIGS  =    1.503    wigner-seitz radius (au A)                               
   ENMAX  =  249.844; ENMIN  =  187.383 eV                                                          
   ICORE  =        3    local potential                                                             
   LCOR   =        T    correct aug charges                                                         
   LPAW   =        T    paw PP                                                                      
   EAUG   =  412.496                                                                                
   DEXC   =    0.000                                                                                
   RMAX   =    2.560    core radius for proj-oper                                                   
   RAUG   =    1.300    factor for augmentation sphere                                              
   RDEP   =    2.576    radius for radial grids                                                     
   RDEPT  =    2.072    core radius for aug-charge                                                  
                                                                                                    
   Atomic configuration                                                                             
   12 entries                                                                                       
     n  l   j            E        occ.                                                              
     1  0  0.50    -25324.9161   2.0000                                                             
     2  0  0.50     -3728.5341   2.0000                                                             
     2  1  1.50     -3344.0404   6.0000                                                             
     3  0  0.50      -683.5581   2.0000                                                             
     3  1  1.50      -557.3225   6.0000                                                             
     3  2  2.50      -358.3853  10.0000                                                             
     4  0  0.50       -95.0341   2.0000                                                             
     4  1  1.50       -58.5511   6.0000                                                             
     4  2  2.50        -7.4440  10.0000                                                             
     5  0  0.50        -4.4045   1.0000                                                             
     5  1  0.50        -1.3606   0.0000                                                             
     4  3  2.50        -1.3606   0.0000                                                             
   Description                                                                                      
     l       E           TYP  RCUT    TYP  RCUT                                                     
     2     -7.4439781     23  2.400                                                                 
     2     -8.8045607     23  2.400                                                                 
     0     -4.4044681     23  2.400                                                                 
     0      1.9520038     23  2.400                                                                 
     1     -1.3605826     23  2.500                                                                 
     1     27.2116520     23  2.500                                                                 
     3     -4.0817478     23  2.400                                                                 
  local pseudopotential read in
  partial core-charges read in
  partial kinetic energy density read in
  atomic valenz-charges read in
  non local Contribution for L=            2  read in
    real space projection operators read in
  non local Contribution for L=            2  read in
    real space projection operators read in
  non local Contribution for L=            0  read in
    real space projection operators read in
  non local Contribution for L=            0  read in
    real space projection operators read in
  non local Contribution for L=            1  read in
    real space projection operators read in
  non local Contribution for L=            1  read in
    real space projection operators read in
    PAW grid and wavefunctions read in
 
   number of l-projection  operators is LMAX  =            6
   number of lm-projection operators is LMMAX =           18
 
 POTCAR:    PAW_PBE Cu 22Jun2005                  
   SHA256 =  0e71e558f37a4e8407882b4609ceaae59938afaad9ced71dfe8490308a0ab630 Cu/POTCAR             
   COPYR  = (c) Copyright 22Jun2005 Georg Kresse                                                    
   COPYR  = This file is part of the software VASP. Any use, copying, and all other rights are regul
   COPYR  = If you do not have a valid VASP license, you may not use, copy or distribute this file. 
   VRHFIN =Cu: d10 p1                                                                               
   LEXCH  = PE                                                                                      
   EATOM  =  1390.9808 eV,  102.2342 Ry                                                             
                                                                                                    
   TITEL  = PAW_PBE Cu 22Jun2005                                                                    
   LULTRA =        F    use ultrasoft PP ?                                                          
   IUNSCR =        1    unscreen: 0-lin 1-nonlin 2-no                                               
   RPACOR =    2.000    partial core radius                                                         
   POMASS =   63.546; ZVAL   =   11.000    mass and valenz                                          
   RCORE  =    2.300    outmost cutoff radius                                                       
   RWIGS  =    2.200; RWIGS  =    1.164    wigner-seitz radius (au A)                               
   ENMAX  =  295.446; ENMIN  =  221.585 eV                                                          
   ICORE  =        3    local potential                                                             
   LCOR   =        T    correct aug charges                                                         
   LPAW   =        T    paw PP                                                                      
   EAUG   =  586.980                                                                                
   DEXC   =    0.000                                                                                
   RMAX   =    2.344    core radius for proj-oper                                                   
   RAUG   =    1.300    factor for augmentation sphere                                              
   RDEP   =    2.302    radius for radial grids                                                     
   RDEPT  =    1.771    core radius for aug-charge                                                  
                                                                                                    
   Atomic configuration                                                                             
    9 entries                                                                                       
     n  l   j            E        occ.                                                              
     1  0  0.50     -8850.2468   2.0000                                                             
     2  0  0.50     -1062.3498   2.0000                                                             
     2  1  1.50      -916.8226   6.0000                                                             
     3  0  0.50      -114.6929   2.0000                                                             
     3  1  1.50       -72.1325   6.0000                                                             
     3  2  2.50        -5.0394  10.0000                                                             
     4  0  0.50        -4.6097   1.0000                                                             
     4  1  0.50        -4.0817   0.0000                                                             
     4  3  2.50        -1.3606   0.0000                                                             
   Description                                                                                      
     l       E           TYP  RCUT    TYP  RCUT                                                     
     2     -5.0393973     23  2.200                                                                 
     2     10.8846608     23  2.200                                                                 
     0     -4.6097109     23  2.200                                                                 
     0      8.2520465     23  2.200                                                                 
     1     -2.7211652     23  2.200                                                                 
     1     21.7055443     23  2.200                                                                 
     3      2.7211652     23  2.300                                                                 
  local pseudopotential read in
  partial core-charges read in
  partial kinetic energy density read in
  atomic valenz-charges read in
  non local Contribution for L=            2  read in
    real space projection operators read in
  non local Contribution for L=            2  read in
    real space projection operators read in
  non local Contribution for L=            0  read in
    real space projection operators read in
  non local Contribution for L=            0  read in
    real space projection operators read in
  non local Contribution for L=            1  read in
    real space projection operators read in
  non local Contribution for L=            1  read in
    real space projection operators read in
    PAW grid and wavefunctions read in
 
   number of l-projection  operators is LMAX  =            6
   number of lm-projection operators is LMMAX =           18
 
 POTCAR:    PAW_PBE Ag 02Apr2005                  
   SHA256 =  6550cfa3543261e132c169e1b98a529204624d72be14e2da2e0242bcb74a174d Ag/POTCAR             
   COPYR  = (c) Copyright 02Apr2005 Georg Kresse                                                    
   COPYR  = This file is part of the software VASP. Any use, copying, and all other rights are regul
   COPYR  = If you do not have a valid VASP license, you may not use, copy or distribute this file. 
   VRHFIN =Ag : s1 d10                                                                              
   LEXCH  = PE                                                                                      
   EATOM  =  1037.2675 eV,   76.2370 Ry                                                             
                                                                                                    
   TITEL  = PAW_PBE Ag 02Apr2005                                                                    
   LULTRA =        F    use ultrasoft PP ?                                                          
   IUNSCR =        1    unscreen: 0-lin 1-nonlin 2-no                                               
   RPACOR =    2.000    partial core radius                                                         
   POMASS =  107.868; ZVAL   =   11.000    mass and valenz                                          
   RCORE  =    2.500    outmost cutoff radius                                                       
   RWIGS  =    2.840; RWIGS  =    1.503    wigner-seitz radius (au A)                               
   ENMAX  =  249.844; ENMIN  =  187.383 eV                                                          
   ICORE  =        3    local potential                                                             
   LCOR   =        T    correct aug charges                                                         
   LPAW   =        T    paw PP                                                                      
   EAUG   =  412.496                                                                                
   DEXC   =    0.000                                                                                
   RMAX   =    2.560    core radius for proj-oper                                                   
   RAUG   =    1.300    factor for augmentation sphere                                              
   RDEP   =    2.576    radius for radial grids                                                     
   RDEPT  =    2.072    core radius for aug-charge                                                  
                                                                                                    
   Atomic configuration                                                                             
   12 entries                                                                                       
     n  l   j            E        occ.                                                              
     1  0  0.50    -25324.9161   2.0000                                                             
     2  0  0.50     -3728.5341   2.0000                                                             
     2  1  1.50     -3344.0404   6.0000                                                             
     3  0  0.50      -683.5581   2.0000                                                             
     3  1  1.50      -557.3225   6.0000                                                             
     3  2  2.50      -358.3853  10.0000                                                             
     4  0  0.50       -95.0341   2.0000                                                             
     4  1  1.50       -58.5511   6.0000                                                             
     4  2  2.50        -7.4440  10.0000                                                             
     5  0  0.50        -4.4045   1.0000                                                             
     5  1  0.50        -1.3606   0.0000                                                             
     4  3  2.50        -1.3606   0.0000                                                             
   Description                                                                                      
     l       E           TYP  RCUT    TYP  RCUT                                                     
     2     -7.4439781     23  2.400                                                                 
     2     -8.8045607     23  2.400                                                                 
     0     -4.4044681     23  2.400                                                                 
     0      1.9520038     23  2.400                                                                 
     1     -1.3605826     23  2.500                                                                 
     1     27.2116520     23  2.500                                                                 
     3     -4.0817478     23  2.400                                                                 
  local pseudopotential read in
  partial core-charges read in
  partial kinetic energy density read in
  atomic valenz-charges read in
  non local Contribution for L=            2  read in
    real space projection operators read in
  non local Contribution for L=            2  read in
    real space projection operators read in
  non local Contribution for L=            0  read in
    real space projection operators read in
  non local Contribution for L=            0  read in
    real space projection operators read in
  non local Contribution for L=            1  read in
    real space projection operators read in
  non local Contribution for L=            1  read in
    real space projection operators read in
    PAW grid and wavefunctions read in
 
   number of l-projection  operators is LMAX  =            6
   number of lm-projection operators is LMMAX =           18
 
 POTCAR:    PAW_PBE Cu 22Jun2005                  
   SHA256 =  0e71e558f37a4e8407882b4609ceaae59938afaad9ced71dfe8490308a0ab630 Cu/POTCAR             
   COPYR  = (c) Copyright 22Jun2005 Georg Kresse                                                    
   COPYR  = This file is part of the software VASP. Any use, copying, and all other rights are regul
   COPYR  = If you do not have a valid VASP license, you may not use, copy or distribute this file. 
   VRHFIN =Cu: d10 p1                                                                               
   LEXCH  = PE                                                                                      
   EATOM  =  1390.9808 eV,  102.2342 Ry                                                             
                                                                                                    
   TITEL  = PAW_PBE Cu 22Jun2005                                                                    
   LULTRA =        F    use ultrasoft PP ?                                                          
   IUNSCR =        1    unscreen: 0-lin 1-nonlin 2-no                                               
   RPACOR =    2.000    partial core radius                                                         
   POMASS =   63.546; ZVAL   =   11.000    mass and valenz                                          
   RCORE  =    2.300    outmost cutoff radius                                                       
   RWIGS  =    2.200; RWIGS  =    1.164    wigner-seitz radius (au A)                               
   ENMAX  =  295.446; ENMIN  =  221.585 eV                                                          
   ICORE  =        3    local potential                                                             
   LCOR   =        T    correct aug charges                                                         
   LPAW   =        T    paw PP                                                                      
   EAUG   =  586.980                                                                                
   DEXC   =    0.000                                                                                
   RMAX   =    2.344    core radius for proj-oper                                                   
   RAUG   =    1.300    factor for augmentation sphere                                              
   RDEP   =    2.302    radius for radial grids                                                     
   RDEPT  =    1.771    core radius for aug-charge                                                  
                                                                                                    
   Atomic configuration                                                                             
    9 entries                                                                                       
     n  l   j            E        occ.                                                              
     1  0  0.50     -8850.2468   2.0000                                                             
     2  0  0.50     -1062.3498   2.0000                                                             
     2  1  1.50      -916.8226   6.0000                                                             
     3  0  0.50      -114.6929   2.0000                                                             
     3  1  1.50       -72.1325   6.0000                                                             
     3  2  2.50        -5.0394  10.0000                                                             
     4  0  0.50        -4.6097   1.0000                                                             
     4  1  0.50        -4.0817   0.0000                                                             
     4  3  2.50        -1.3606   0.0000                                                             
   Description                                                                                      
     l       E           TYP  RCUT    TYP  RCUT                                                     
     2     -5.0393973     23  2.200                                                                 
     2     10.8846608     23  2.200                                                                 
     0     -4.6097109     23  2.200                                                                 
     0      8.2520465     23  2.200                                                                 
     1     -2.7211652     23  2.200                                                                 
     1     21.7055443     23  2.200                                                                 
     3      2.7211652     23  2.300                                                                 
  local pseudopotential read in
  partial core-charges read in
  partial kinetic energy density read in
  atomic valenz-charges read in
  non local Contribution for L=            2  read in
    real space projection operators read in
  non local Contribution for L=            2  read in
    real space projection operators read in
  non local Contribution for L=            0  read in
    real space projection operators read in
  non local Contribution for L=            0  read in
    real space projection operators read in
  non local Contribution for L=            1  read in
    real space projection operators read in
  non local Contribution for L=            1  read in
    real space projection operators read in
    PAW grid and wavefunctions read in
 
   number of l-projection  operators is LMAX  =            6
   number of lm-projection operators is LMMAX =           18
 
 POTCAR:    PAW_PBE Ag 02Apr2005                  
   SHA256 =  6550cfa3543261e132c169e1b98a529204624d72be14e2da2e0242bcb74a174d Ag/POTCAR             
   COPYR  = (c) Copyright 02Apr2005 Georg Kresse                                                    
   COPYR  = This file is part of the software VASP. Any use, copying, and all other rights are regul
   COPYR  = If you do not have a valid VASP license, you may not use, copy or distribute this file. 
   VRHFIN =Ag : s1 d10                                                                              
   LEXCH  = PE                                                                                      
   EATOM  =  1037.2675 eV,   76.2370 Ry                                                             
                                                                                                    
   TITEL  = PAW_PBE Ag 02Apr2005                                                                    
   LULTRA =        F    use ultrasoft PP ?                                                          
   IUNSCR =        1    unscreen: 0-lin 1-nonlin 2-no                                               
   RPACOR =    2.000    partial core radius                                                         
   POMASS =  107.868; ZVAL   =   11.000    mass and valenz                                          
   RCORE  =    2.500    outmost cutoff radius                                                       
   RWIGS  =    2.840; RWIGS  =    1.503    wigner-seitz radius (au A)                               
   ENMAX  =  249.844; ENMIN  =  187.383 eV                                                          
   ICORE  =        3    local potential                                                             
   LCOR   =        T    correct aug charges                                                         
   LPAW   =        T    paw PP                                                                      
   EAUG   =  412.496                                                                                
   DEXC   =    0.000                                                                                
   RMAX   =    2.560    core radius for proj-oper                                                   
   RAUG   =    1.300    factor for augmentation sphere                                              
   RDEP   =    2.576    radius for radial grids                                                     
   RDEPT  =    2.072    core radius for aug-charge                                                  
                                                                                                    
   Atomic configuration                                                                             
   12 entries                                                                                       
     n  l   j            E        occ.                                                              
     1  0  0.50    -25324.9161   2.0000                                                             
     2  0  0.50     -3728.5341   2.0000                                                             
     2  1  1.50     -3344.0404   6.0000                                                             
     3  0  0.50      -683.5581   2.0000                                                             
     3  1  1.50      -557.3225   6.0000                                                             
     3  2  2.50      -358.3853  10.0000                                                             
     4  0  0.50       -95.0341   2.0000                                                             
     4  1  1.50       -58.5511   6.0000                                                             
     4  2  2.50        -7.4440  10.0000                                                             
     5  0  0.50        -4.4045   1.0000                                                             
     5  1  0.50        -1.3606   0.0000                                                             
     4  3  2.50        -1.3606   0.0000                                                             
   Description                                                                                      
     l       E           TYP  RCUT    TYP  RCUT                                                     
     2     -7.4439781     23  2.400                                                                 
     2     -8.8045607     23  2.400                                                                 
     0     -4.4044681     23  2.400                                                                 
     0      1.9520038     23  2.400                                                                 
     1     -1.3605826     23  2.500                                                                 
     1     27.2116520     23  2.500                                                                 
     3     -4.0817478     23  2.400                                                                 
  local pseudopotential read in
  partial core-charges read in
  partial kinetic energy density read in
  atomic valenz-charges read in
  non local Contribution for L=            2  read in
    real space projection operators read in
  non local Contribution for L=            2  read in
    real space projection operators read in
  non local Contribution for L=            0  read in
    real space projection operators read in
  non local Contribution for L=            0  read in
    real space projection operators read in
  non local Contribution for L=            1  read in
    real space projection operators read in
  non local Contribution for L=            1  read in
    real space projection operators read in
    PAW grid and wavefunctions read in
 
   number of l-projection  operators is LMAX  =            6
   number of lm-projection operators is LMMAX =           18
 
 POTCAR:    PAW_PBE Cu 22Jun2005                  
   SHA256 =  0e71e558f37a4e8407882b4609ceaae59938afaad9ced71dfe8490308a0ab630 Cu/POTCAR             
   COPYR  = (c) Copyright 22Jun2005 Georg Kresse                                                    
   COPYR  = This file is part of the software VASP. Any use, copying, and all other rights are regul
   COPYR  = If you do not have a valid VASP license, you may not use, copy or distribute this file. 
   VRHFIN =Cu: d10 p1                                                                               
   LEXCH  = PE                                                                                      
   EATOM  =  1390.9808 eV,  102.2342 Ry                                                             
                                                                                                    
   TITEL  = PAW_PBE Cu 22Jun2005                                                                    
   LULTRA =        F    use ultrasoft PP ?                                                          
   IUNSCR =        1    unscreen: 0-lin 1-nonlin 2-no                                               
   RPACOR =    2.000    partial core radius                                                         
   POMASS =   63.546; ZVAL   =   11.000    mass and valenz                                          
   RCORE  =    2.300    outmost cutoff radius                                                       
   RWIGS  =    2.200; RWIGS  =    1.164    wigner-seitz radius (au A)                               
   ENMAX  =  295.446; ENMIN  =  221.585 eV                                                          
   ICORE  =        3    local potential                                                             
   LCOR   =        T    correct aug charges                                                         
   LPAW   =        T    paw PP                                                                      
   EAUG   =  586.980                                                                                
   DEXC   =    0.000                                                                                
   RMAX   =    2.344    core radius for proj-oper                                                   
   RAUG   =    1.300    factor for augmentation sphere                                              
   RDEP   =    2.302    radius for radial grids                                                     
   RDEPT  =    1.771    core radius for aug-charge                                                  
                                                                                                    
   Atomic configuration                                                                             
    9 entries                                                                                       
     n  l   j            E        occ.                                                              
     1  0  0.50     -8850.2468   2.0000                                                             
     2  0  0.50     -1062.3498   2.0000                                                             
     2  1  1.50      -916.8226   6.0000                                                             
     3  0  0.50      -114.6929   2.0000                                                             
     3  1  1.50       -72.1325   6.0000                                                             
     3  2  2.50        -5.0394  10.0000                                                             
     4  0  0.50        -4.6097   1.0000                                                             
     4  1  0.50        -4.0817   0.0000                                                             
     4  3  2.50        -1.3606   0.0000                                                             
   Description                                                                                      
     l       E           TYP  RCUT    TYP  RCUT                                                     
     2     -5.0393973     23  2.200                                                                 
     2     10.8846608     23  2.200                                                                 
     0     -4.6097109     23  2.200                                                                 
     0      8.2520465     23  2.200                                                                 
     1     -2.7211652     23  2.200                                                                 
     1     21.7055443     23  2.200                                                                 
     3      2.7211652     23  2.300                                                                 
  local pseudopotential read in
  partial core-charges read in
  partial kinetic energy density read in
  atomic valenz-charges read in
  non local Contribution for L=            2  read in
    real space projection operators read in
  non local Contribution for L=            2  read in
    real space projection operators read in
  non local Contribution for L=            0  read in
    real space projection operators read in
  non local Contribution for L=            0  read in
    real space projection operators read in
  non local Contribution for L=            1  read in
    real space projection operators read in
  non local Contribution for L=            1  read in
    real space projection operators read in
    PAW grid and wavefunctions read in
 
   number of l-projection  operators is LMAX  =            6
   number of lm-projection operators is LMMAX =           18
 
 POTCAR:    PAW_PBE Ag 02Apr2005                  
   SHA256 =  6550cfa3543261e132c169e1b98a529204624d72be14e2da2e0242bcb74a174d Ag/POTCAR             
   COPYR  = (c) Copyright 02Apr2005 Georg Kresse                                                    
   COPYR  = This file is part of the software VASP. Any use, copying, and all other rights are regul
   COPYR  = If you do not have a valid VASP license, you may not use, copy or distribute this file. 
   VRHFIN =Ag : s1 d10                                                                              
   LEXCH  = PE                                                                                      
   EATOM  =  1037.2675 eV,   76.2370 Ry                                                             
                                                                                                    
   TITEL  = PAW_PBE Ag 02Apr2005                                                                    
   LULTRA =        F    use ultrasoft PP ?                                                          
   IUNSCR =        1    unscreen: 0-lin 1-nonlin 2-no                                               
   RPACOR =    2.000    partial core radius                                                         
   POMASS =  107.868; ZVAL   =   11.000    mass and valenz                                          
   RCORE  =    2.500    outmost cutoff radius                                                       
   RWIGS  =    2.840; RWIGS  =    1.503    wigner-seitz radius (au A)                               
   ENMAX  =  249.844; ENMIN  =  187.383 eV                                                          
   ICORE  =        3    local potential                                                             
   LCOR   =        T    correct aug charges                                                         
   LPAW   =        T    paw PP                                                                      
   EAUG   =  412.496                                                                                
   DEXC   =    0.000                                                                                
   RMAX   =    2.560    core radius for proj-oper                                                   
   RAUG   =    1.300    factor for augmentation sphere                                              
   RDEP   =    2.576    radius for radial grids                                                     
   RDEPT  =    2.072    core radius for aug-charge                                                  
                                                                                                    
   Atomic configuration                                                                             
   12 entries                                                                                       
     n  l   j            E        occ.                                                              
     1  0  0.50    -25324.9161   2.0000                                                             
     2  0  0.50     -3728.5341   2.0000                                                             
     2  1  1.50     -3344.0404   6.0000                                                             
     3  0  0.50      -683.5581   2.0000                                                             
     3  1  1.50      -557.3225   6.0000                                                             
     3  2  2.50      -358.3853  10.0000                                                             
     4  0  0.50       -95.0341   2.0000                                                             
     4  1  1.50       -58.5511   6.0000                                                             
     4  2  2.50        -7.4440  10.0000                                                             
     5  0  0.50        -4.4045   1.0000                                                             
     5  1  0.50        -1.3606   0.0000                                                             
     4  3  2.50        -1.3606   0.0000                                                             
   Description                                                                                      
     l       E           TYP  RCUT    TYP  RCUT                                                     
     2     -7.4439781     23  2.400                                                                 
     2     -8.8045607     23  2.400                                                                 
     0     -4.4044681     23  2.400                                                                 
     0      1.9520038     23  2.400                                                                 
     1     -1.3605826     23  2.500                                                                 
     1     27.2116520     23  2.500                                                                 
     3     -4.0817478     23  2.400                                                                 
  local pseudopotential read in
  partial core-charges read in
  partial kinetic energy density read in
  atomic valenz-charges read in
  non local Contribution for L=            2  read in
    real space projection operators read in
  non local Contribution for L=            2  read in
    real space projection operators read in
  non local Contribution for L=            0  read in
    real space projection operators read in
  non local Contribution for L=            0  read in
    real space projection operators read in
  non local Contribution for L=            1  read in
    real space projection operators read in
  non local Contribution for L=            1  read in
    real space projection operators read in
    PAW grid and wavefunctions read in
 
   number of l-projection  operators is LMAX  =            6
   number of lm-projection operators is LMMAX =           18
 
 POTCAR:    PAW_PBE C 08Apr2002                   
   SHA256 =  253f7b50bb8d59471dbedb8285d89021f4a42ed1a2c5d38a03a736e69125dd95 C/POTCAR              
   COPYR  = (c) Copyright 08Apr2002 Georg Kresse                                                    
   COPYR  = This file is part of the software VASP. Any use, copying, and all other rights are regul
   COPYR  = If you do not have a valid VASP license, you may not use, copy or distribute this file. 
   VRHFIN =C: s2p2                                                                                  
   LEXCH  = PE                                                                                      
   EATOM  =   147.1560 eV,   10.8157 Ry                                                             
                                                                                                    
   TITEL  = PAW_PBE C 08Apr2002                                                                     
   LULTRA =        F    use ultrasoft PP ?                                                          
   IUNSCR =        1    unscreen: 0-lin 1-nonlin 2-no                                               
   RPACOR =    1.200    partial core radius                                                         
   POMASS =   12.011; ZVAL   =    4.000    mass and valenz                                          
   RCORE  =    1.500    outmost cutoff radius                                                       
   RWIGS  =    1.630; RWIGS  =    0.863    wigner-seitz radius (au A)                               
   ENMAX  =  400.000; ENMIN  =  300.000 eV                                                          
   ICORE  =        2    local potential                                                             
   LCOR   =        T    correct aug charges                                                         
   LPAW   =        T    paw PP                                                                      
   EAUG   =  644.873                                                                                
   DEXC   =    0.000                                                                                
   RMAX   =    1.529    core radius for proj-oper                                                   
   RAUG   =    1.300    factor for augmentation sphere                                              
   RDEP   =    1.501    radius for radial grids                                                     
   RDEPT  =    1.300    core radius for aug-charge                                                  
                                                                                                    
   Atomic configuration                                                                             
    4 entries                                                                                       
     n  l   j            E        occ.                                                              
     1  0  0.50      -273.3789   2.0000                                                             
     2  0  0.50       -13.7508   2.0000                                                             
     2  1  0.50        -5.2854   2.0000                                                             
     3  2  1.50        -5.4423   0.0000                                                             
   Description                                                                                      
     l       E           TYP  RCUT    TYP  RCUT                                                     
     0    -13.7508458     23  1.200                                                                 
     0     -8.2022199     23  1.200                                                                 
     1     -5.2854383     23  1.500                                                                 
     1     34.0145650     23  1.500                                                                 
     2     -5.4423304      7  1.500                                                                 
  local pseudopotential read in
  partial core-charges read in
  partial kinetic energy density read in
  atomic valenz-charges read in
  non local Contribution for L=            0  read in
    real space projection operators read in
  non local Contribution for L=            0  read in
    real space projection operators read in
  non local Contribution for L=            1  read in
    real space projection operators read in
  non local Contribution for L=            1  read in
    real space projection operators read in
    PAW grid and wavefunctions read in
 
   number of l-projection  operators is LMAX  =            4
   number of lm-projection operators is LMMAX =            8
 
 POTCAR:    PAW_PBE O 08Apr2002                   
   SHA256 =  818f92134a0a090dccd8ba1447fa70422a3b330e708bb4f08108d8ae51209ddf O/POTCAR              
   COPYR  = (c) Copyright 08Apr2002 Georg Kresse                                                    
   COPYR  = This file is part of the software VASP. Any use, copying, and all other rights are regul
   COPYR  = If you do not have a valid VASP license, you may not use, copy or distribute this file. 
   VRHFIN =O: s2p4                                                                                  
   LEXCH  = PE                                                                                      
   EATOM  =   432.3788 eV,   31.7789 Ry                                                             
                                                                                                    
   TITEL  = PAW_PBE O 08Apr2002                                                                     
   LULTRA =        F    use ultrasoft PP ?                                                          
   IUNSCR =        1    unscreen: 0-lin 1-nonlin 2-no                                               
   RPACOR =    1.200    partial core radius                                                         
   POMASS =   16.000; ZVAL   =    6.000    mass and valenz                                          
   RCORE  =    1.520    outmost cutoff radius                                                       
   RWIGS  =    1.550; RWIGS  =    0.820    wigner-seitz radius (au A)                               
   ENMAX  =  400.000; ENMIN  =  300.000 eV                                                          
   ICORE  =        2    local potential                                                             
   LCOR   =        T    correct aug charges                                                         
   LPAW   =        T    paw PP                                                                      
   EAUG   =  605.392                                                                                
   DEXC   =    0.000                                                                                
   RMAX   =    1.553    core radius for proj-oper                                                   
   RAUG   =    1.300    factor for augmentation sphere                                              
   RDEP   =    1.550    radius for radial grids                                                     
   RDEPT  =    1.329    core radius for aug-charge                                                  
                                                                                                    
   Atomic configuration                                                                             
    4 entries                                                                                       
     n  l   j            E        occ.                                                              
     1  0  0.50      -514.6923   2.0000                                                             
     2  0  0.50       -23.9615   2.0000                                                             
     2  1  0.50        -9.0305   4.0000                                                             
     3  2  1.50        -9.5241   0.0000                                                             
   Description                                                                                      
     l       E           TYP  RCUT    TYP  RCUT                                                     
     0    -23.9615318     23  1.200                                                                 
     0     -9.5240782     23  1.200                                                                 
     1     -9.0304911     23  1.520                                                                 
     1      8.1634956     23  1.520                                                                 
     2     -9.5240782      7  1.500                                                                 
  local pseudopotential read in
  partial core-charges read in
  partial kinetic energy density read in
  kinetic energy density of atom read in
  atomic valenz-charges read in
  non local Contribution for L=            0  read in
    real space projection operators read in
  non local Contribution for L=            0  read in
    real space projection operators read in
  non local Contribution for L=            1  read in
    real space projection operators read in
  non local Contribution for L=            1  read in
    real space projection operators read in
    PAW grid and wavefunctions read in
 
   number of l-projection  operators is LMAX  =            4
   number of lm-projection operators is LMMAX =            8
 
 Optimization of the real space projectors (new method)

 maximal supplied QI-value         = 16.25
 optimisation between [QCUT,QGAM] = [ 10.73, 21.61] = [ 32.22,130.83] Ry 
 Optimized for a Real-space Cutoff    1.42 Angstroem

   l    n(q)    QCUT    max X(q) W(low)/X(q) W(high)/X(q)  e(spline) 
   2      8    10.726     4.610    0.15E-03    0.25E-03    0.14E-06
   2      8    10.726     8.522    0.25E-03    0.43E-03    0.27E-06
   0      9    10.726    51.609    0.94E-04    0.10E-03    0.12E-06
   0      9    10.726    27.747    0.85E-04    0.96E-04    0.11E-06
   1      9    10.726    20.408    0.25E-03    0.14E-03    0.12E-06
   1      9    10.726    13.425    0.22E-03    0.13E-03    0.11E-06
 Optimization of the real space projectors (new method)

 maximal supplied QI-value         = 15.12
 optimisation between [QCUT,QGAM] = [ 10.73, 21.62] = [ 32.26,130.87] Ry 
 Optimized for a Real-space Cutoff    1.42 Angstroem

   l    n(q)    QCUT    max X(q) W(low)/X(q) W(high)/X(q)  e(spline) 
   2      8    10.734    53.897    0.46E-03    0.48E-03    0.17E-06
   2      8    10.734    52.416    0.47E-03    0.50E-03    0.17E-06
   0      9    10.734   122.045    0.16E-03    0.13E-03    0.44E-07
   0      9    10.734    73.629    0.16E-03    0.13E-03    0.43E-07
   1      9    10.734    15.255    0.66E-04    0.32E-03    0.15E-06
   1      9    10.734     9.562    0.55E-04    0.26E-03    0.12E-06
 Optimization of the real space projectors (new method)

 maximal supplied QI-value         = 16.25
 optimisation between [QCUT,QGAM] = [ 10.73, 21.61] = [ 32.22,130.83] Ry 
 Optimized for a Real-space Cutoff    1.42 Angstroem

   l    n(q)    QCUT    max X(q) W(low)/X(q) W(high)/X(q)  e(spline) 
   2      8    10.726     4.610    0.15E-03    0.25E-03    0.14E-06
   2      8    10.726     8.522    0.25E-03    0.43E-03    0.27E-06
   0      9    10.726    51.609    0.94E-04    0.10E-03    0.12E-06
   0      9    10.726    27.747    0.85E-04    0.96E-04    0.11E-06
   1      9    10.726    20.408    0.25E-03    0.14E-03    0.12E-06
   1      9    10.726    13.425    0.22E-03    0.13E-03    0.11E-06
 Optimization of the real space projectors (new method)

 maximal supplied QI-value         = 15.12
 optimisation between [QCUT,QGAM] = [ 10.73, 21.62] = [ 32.26,130.87] Ry 
 Optimized for a Real-space Cutoff    1.42 Angstroem

   l    n(q)    QCUT    max X(q) W(low)/X(q) W(high)/X(q)  e(spline) 
   2      8    10.734    53.897    0.46E-03    0.48E-03    0.17E-06
   2      8    10.734    52.416    0.47E-03    0.50E-03    0.17E-06
   0      9    10.734   122.045    0.16E-03    0.13E-03    0.44E-07
   0      9    10.734    73.629    0.16E-03    0.13E-03    0.43E-07
   1      9    10.734    15.255    0.66E-04    0.32E-03    0.15E-06
   1      9    10.734     9.562    0.55E-04    0.26E-03    0.12E-06
 Optimization of the real space projectors (new method)

 maximal supplied QI-value         = 16.25
 optimisation between [QCUT,QGAM] = [ 10.73, 21.61] = [ 32.22,130.83] Ry 
 Optimized for a Real-space Cutoff    1.42 Angstroem

   l    n(q)    QCUT    max X(q) W(low)/X(q) W(high)/X(q)  e(spline) 
   2      8    10.726     4.610    0.15E-03    0.25E-03    0.14E-06
   2      8    10.726     8.522    0.25E-03    0.43E-03    0.27E-06
   0      9    10.726    51.609    0.94E-04    0.10E-03    0.12E-06
   0      9    10.726    27.747    0.85E-04    0.96E-04    0.11E-06
   1      9    10.726    20.408    0.25E-03    0.14E-03    0.12E-06
   1      9    10.726    13.425    0.22E-03    0.13E-03    0.11E-06
 Optimization of the real space projectors (new method)

 maximal supplied QI-value         = 15.12
 optimisation between [QCUT,QGAM] = [ 10.73, 21.62] = [ 32.26,130.87] Ry 
 Optimized for a Real-space Cutoff    1.42 Angstroem

   l    n(q)    QCUT    max X(q) W(low)/X(q) W(high)/X(q)  e(spline) 
   2      8    10.734    53.897    0.46E-03    0.48E-03    0.17E-06
   2      8    10.734    52.416    0.47E-03    0.50E-03    0.17E-06
   0      9    10.734   122.045    0.16E-03    0.13E-03    0.44E-07
   0      9    10.734    73.629    0.16E-03    0.13E-03    0.43E-07
   1      9    10.734    15.255    0.66E-04    0.32E-03    0.15E-06
   1      9    10.734     9.562    0.55E-04    0.26E-03    0.12E-06
 Optimization of the real space projectors (new method)

 maximal supplied QI-value         = 16.25
 optimisation between [QCUT,QGAM] = [ 10.73, 21.61] = [ 32.22,130.83] Ry 
 Optimized for a Real-space Cutoff    1.42 Angstroem

   l    n(q)    QCUT    max X(q) W(low)/X(q) W(high)/X(q)  e(spline) 
   2      8    10.726     4.610    0.15E-03    0.25E-03    0.14E-06
   2      8    10.726     8.522    0.25E-03    0.43E-03    0.27E-06
   0      9    10.726    51.609    0.94E-04    0.10E-03    0.12E-06
   0      9    10.726    27.747    0.85E-04    0.96E-04    0.11E-06
   1      9    10.726    20.408    0.25E-03    0.14E-03    0.12E-06
   1      9    10.726    13.425    0.22E-03    0.13E-03    0.11E-06
 Optimization of the real space projectors (new method)

 maximal supplied QI-value         = 15.12
 optimisation between [QCUT,QGAM] = [ 10.73, 21.62] = [ 32.26,130.87] Ry 
 Optimized for a Real-space Cutoff    1.42 Angstroem

   l    n(q)    QCUT    max X(q) W(low)/X(q) W(high)/X(q)  e(spline) 
   2      8    10.734    53.897    0.46E-03    0.48E-03    0.17E-06
   2      8    10.734    52.416    0.47E-03    0.50E-03    0.17E-06
   0      9    10.734   122.045    0.16E-03    0.13E-03    0.44E-07
   0      9    10.734    73.629    0.16E-03    0.13E-03    0.43E-07
   1      9    10.734    15.255    0.66E-04    0.32E-03    0.15E-06
   1      9    10.734     9.562    0.55E-04    0.26E-03    0.12E-06
 Optimization of the real space projectors (new method)

 maximal supplied QI-value         = 25.13
 optimisation between [QCUT,QGAM] = [ 10.81, 21.61] = [ 32.71,130.83] Ry 
 Optimized for a Real-space Cutoff    1.23 Angstroem

   l    n(q)    QCUT    max X(q) W(low)/X(q) W(high)/X(q)  e(spline) 
   0      8    10.807   115.676    0.36E-03    0.72E-03    0.24E-06
   0      8    10.807    87.132    0.35E-03    0.71E-03    0.24E-06
   1      7    10.807     4.429    0.19E-03    0.39E-03    0.11E-06
   1      7    10.807     2.733    0.14E-03    0.28E-03    0.13E-06
 Optimization of the real space projectors (new method)

 maximal supplied QI-value         = 24.76
 optimisation between [QCUT,QGAM] = [ 10.64, 21.54] = [ 31.73,129.89] Ry 
 Optimized for a Real-space Cutoff    1.23 Angstroem

   l    n(q)    QCUT    max X(q) W(low)/X(q) W(high)/X(q)  e(spline) 
   0      8    10.645    20.381    0.38E-03    0.60E-03    0.15E-06
   0      8    10.645    15.268    0.40E-03    0.65E-03    0.17E-06
   1      7    10.645     5.964    0.30E-03    0.63E-03    0.18E-06
   1      7    10.645     5.382    0.24E-03    0.53E-03    0.16E-06
 -----------------------------------------------------------------------------
|                                                                             |
|               ----> ADVICE to this user running VASP <----                  |
|                                                                             |
|     You enforced a specific xc type in the INCAR file but a different       |
|     type was found in the POTCAR file.                                      |
|     I HOPE YOU KNOW WHAT YOU ARE DOING!                                     |
|                                                                             |
 -----------------------------------------------------------------------------

  PAW_PBE Cu 22Jun2005                  :
 energy of atom  1       EATOM=-1390.9808
 kinetic energy error for atom=    0.0097 (will be added to EATOM!!)
  PAW_PBE Ag 02Apr2005                  :
 energy of atom  2       EATOM=-1037.2675
 kinetic energy error for atom=    0.0055 (will be added to EATOM!!)
  PAW_PBE Cu 22Jun2005                  :
 energy of atom  3       EATOM=-1390.9808
 kinetic energy error for atom=    0.0097 (will be added to EATOM!!)
  PAW_PBE Ag 02Apr2005                  :
 energy of atom  4       EATOM=-1037.2675
 kinetic energy error for atom=    0.0055 (will be added to EATOM!!)
  PAW_PBE Cu 22Jun2005                  :
 energy of atom  5       EATOM=-1390.9808
 kinetic energy error for atom=    0.0097 (will be added to EATOM!!)
  PAW_PBE Ag 02Apr2005                  :
 energy of atom  6       EATOM=-1037.2675
 kinetic energy error for atom=    0.0055 (will be added to EATOM!!)
  PAW_PBE Cu 22Jun2005                  :
 energy of atom  7       EATOM=-1390.9808
 kinetic energy error for atom=    0.0097 (will be added to EATOM!!)
  PAW_PBE Ag 02Apr2005                  :
 energy of atom  8       EATOM=-1037.2675
 kinetic energy error for atom=    0.0055 (will be added to EATOM!!)
  PAW_PBE C 08Apr2002                   :
 energy of atom  9       EATOM= -147.1560
 kinetic energy error for atom=    0.0116 (will be added to EATOM!!)
  PAW_PBE O 08Apr2002                   :
 energy of atom 10       EATOM= -432.3788
 kinetic energy error for atom=    0.0389 (will be added to EATOM!!)
 
 
 POSCAR: Cu Ag Cu Ag Cu Ag Cu Ag C  O
  positions in cartesian coordinates
  No initial velocities read in


 exchange-correlation table for RP
   RHO(1)=    0.500       N(1)  =     2000
   RHO(2)=  100.500       N(2)  =     4000
 


--------------------------------------------------------------------------------------------------------


 ion  position               nearest neighbor table
   1  0.000  0.000  0.394-   5 2.64   3 2.64   3 2.64   4 2.64   4 2.64   2 2.64   2 2.64   7 2.64
                             6 2.64
   2  0.500  0.000  0.394-   6 2.64   4 2.64   3 2.64   4 2.64   3 2.64   1 2.64   1 2.64   8 2.64
                             5 2.64
   3  0.000  0.500  0.394-   7 2.64   1 2.64   1 2.64   2 2.64   2 2.64   4 2.64   4 2.64   5 2.64
                             8 2.64
   4  0.500  0.500  0.394-   8 2.64   2 2.64   1 2.64   2 2.64   1 2.64   3 2.64   3 2.64   6 2.64
                             7 2.64
   5  0.167  0.167  0.465-  12 2.64   9 2.64  10 2.64   1 2.64   7 2.64   7 2.64   8 2.64   8 2.64
                             6 2.64   6 2.64   3 2.64   2 2.64
   6  0.667  0.167  0.465-  11 2.64  10 2.64   9 2.64   2 2.64   8 2.64   7 2.64   8 2.64   7 2.64
                             5 2.64   5 2.64   4 2.64   1 2.64
   7  0.167  0.667  0.465-  10 2.64  11 2.64  12 2.64   3 2.64   5 2.64   5 2.64   6 2.64   6 2.64
                             8 2.64   8 2.64   1 2.64   4 2.64
   8  0.667  0.667  0.465-   9 2.64  12 2.64  11 2.64   4 2.64   6 2.64   5 2.64   6 2.64   5 2.64
                             7 2.64   7 2.64   2 2.64   3 2.64
   9  0.833  0.333  0.535-   8 2.64   5 2.64   6 2.64  15 2.64  11 2.64  11 2.64  12 2.64  12 2.64
                            10 2.64  10 2.64  13 2.64  16 2.64
  10  0.333  0.333  0.535-   7 2.64   6 2.64   5 2.64  16 2.64  12 2.64  11 2.64  12 2.64  11 2.64
                             9 2.64   9 2.64  14 2.64  15 2.64
  11  0.833  0.833  0.535-   6 2.64   7 2.64   8 2.64  13 2.64   9 2.64   9 2.64  10 2.64  10 2.64
                            12 2.64  12 2.64  15 2.64  14 2.64
  12  0.333  0.833  0.535-   5 2.64   8 2.64   7 2.64  14 2.64  10 2.64   9 2.64  10 2.64   9 2.64
                            11 2.64  11 2.64  16 2.64  13 2.64
  13  0.000  0.000  0.606-  17 2.36  11 2.64  15 2.64  15 2.64  16 2.64  16 2.64  14 2.64  14 2.64
                             9 2.64  12 2.64
  14  0.500  0.000  0.606-  17 2.36  12 2.64  16 2.64  15 2.64  16 2.64  15 2.64  13 2.64  13 2.64
                            10 2.64  11 2.64
  15  0.000  0.500  0.606-  17 2.36   9 2.64  13 2.64  13 2.64  14 2.64  14 2.64  16 2.64  16 2.64
                            11 2.64  10 2.64
  16  0.500  0.500  0.606-  10 2.64  14 2.64  13 2.64  14 2.64  13 2.64  15 2.64  15 2.64  12 2.64
                             9 2.64
  17  0.167  0.167  0.665-  18 1.13  13 2.36  15 2.36  14 2.36
  18  0.167  0.167  0.702-  17 1.13
 
  LATTYP: Found a hexagonal cell.
 ALAT       =     5.2785521216
 C/A-ratio  =     5.7714462106
  
  Lattice vectors:
  
 A1 = (  -2.6392760608,  -4.5713602325,   0.0000000000)
 A2 = (   5.2785521216,   0.0000000000,   0.0000000000)
 A3 = (   0.0000000000,   0.0000000000,  30.4648796393)


Analysis of symmetry for initial positions (statically):
=====================================================================
 Subroutine PRICEL returns:
 Original cell was already a primitive cell.
 

 Routine SETGRP: Setting up the symmetry group for a 
 hexagonal supercell.


 Subroutine GETGRP returns: Found  1 space group operations
 (whereof  1 operations were pure point group operations)
 out of a pool of 24 trial point group operations.


The static configuration has the point symmetry C_1 .


Analysis of symmetry for dynamics (positions and initial velocities):
=====================================================================
 Subroutine PRICEL returns:
 Original cell was already a primitive cell.
 

 Routine SETGRP: Setting up the symmetry group for a 
 hexagonal supercell.


 Subroutine GETGRP returns: Found  1 space group operations
 (whereof  1 operations were pure point group operations)
 out of a pool of 24 trial point group operations.


The dynamic configuration has the point symmetry C_1 .


Analysis of constrained symmetry for selective dynamics:
=====================================================================
 Subroutine PRICEL returns:
 Original cell was already a primitive cell.
 

 Routine SETGRP: Setting up the symmetry group for a 
 hexagonal supercell.


 Subroutine GETGRP returns: Found  1 space group operations
 (whereof  1 operations were pure point group operations)
 out of a pool of 24 trial point group operations.


The constrained configuration has the point symmetry C_1 .


 Subroutine INISYM returns: Found  1 space group operations
 (whereof  1 operations are pure point group operations),
 and found     1 'primitive' translations


----------------------------------------------------------------------------------------

                                     Primitive cell                                     

  volume of cell :     735.1225

  direct lattice vectors                    reciprocal lattice vectors
     5.278552122  0.000000000  0.000000000     0.189445889 -0.109376635  0.000000000
     2.639276061  4.571360232  0.000000000     0.000000000  0.218753270  0.000000000
     0.000000000  0.000000000 30.464879639     0.000000000  0.000000000  0.032824682

  length of vectors
     5.278552122  5.278552122 30.464879639     0.218753270  0.218753270  0.032824682

  position of ions in fractional coordinates (direct lattice)
     0.000000000  0.000000000  0.393896189
     0.500000000  0.000000000  0.393896189
     1.000000000  0.500000000  0.393896189
     0.500000000  0.500000000  0.393896189
     0.166666667  0.166666667  0.464632063
     0.666666667  0.166666667  0.464632063
     0.166666667  0.666666667  0.464632063
     0.666666667  0.666666667  0.464632063
     0.833333333  0.333333333  0.535367937
     0.333333333  0.333333333  0.535367937
     0.833333333  0.833333333  0.535367937
     0.333333333  0.833333333  0.535367937
     0.000000000  0.000000000  0.606103811
     0.500000000  0.000000000  0.606103811
     1.000000000  0.500000000  0.606103811
     0.500000000  0.500000000  0.606103811
     0.166666667  0.166666667  0.665188239
     0.166666667  0.166666667  0.702280130

  ion indices of the primitive-cell ions
   primitive index   ion index
                 1           1
                 2           2
                 3           3
                 4           4
                 5           5
                 6           6
                 7           7
                 8           8
                 9           9
                10          10
                11          11
                12          12
                13          13
                14          14
                15          15
                16          16
                17          17
                18          18

----------------------------------------------------------------------------------------

 
 
 KPOINTS: Automatic mesh                          

Automatic generation of k-mesh.
 Grid dimensions read from file:
 generate k-points for:    4    4    1

 Generating k-lattice:

  Cartesian coordinates                     Fractional coordinates (reciprocal lattice)
     0.047361472 -0.027344159  0.000000000     0.250000000 -0.000000000  0.000000000
     0.000000000  0.054688318  0.000000000     0.000000000  0.250000000  0.000000000
     0.000000000  0.000000000  0.032824682     0.000000000  0.000000000  1.000000000

  Length of vectors
     0.054688318  0.054688318  0.032824682

  Shift w.r.t. Gamma in fractional coordinates (k-lattice)
     0.000000000  0.000000000  0.000000000

 
 Subroutine IBZKPT returns following result:
 ===========================================
 
 Found     10 irreducible k-points:
 
 Following reciprocal coordinates:
            Coordinates               Weight
  0.000000  0.000000  0.000000      1.000000
  0.250000  0.000000  0.000000      2.000000
  0.250000  0.250000  0.000000      2.000000
  0.000000  0.250000  0.000000      2.000000
  0.500000  0.000000  0.000000      1.000000
  0.500000  0.500000  0.000000      1.000000
  0.000000  0.500000  0.000000      1.000000
  0.500000  0.250000  0.000000      2.000000
  0.250000  0.500000  0.000000      2.000000
 -0.250000  0.250000  0.000000      2.000000
 
 Following cartesian coordinates:
            Coordinates               Weight
  0.000000  0.000000  0.000000      1.000000
  0.047361 -0.027344  0.000000      2.000000
  0.047361  0.027344  0.000000      2.000000
  0.000000  0.054688  0.000000      2.000000
  0.094723 -0.054688  0.000000      1.000000
  0.094723  0.054688  0.000000      1.000000
  0.000000  0.109377  0.000000      1.000000
  0.094723  0.000000  0.000000      2.000000
  0.047361  0.082032  0.000000      2.000000
 -0.047361  0.082032  0.000000      2.000000
 


--------------------------------------------------------------------------------------------------------




 Dimension of arrays:
   k-points           NKPTS =     10   k-points in BZ     NKDIM =     10   number of bands    NBANDS=    111
   number of dos      NEDOS =    301   number of ions     NIONS =     18
   non local maximal  LDIM  =      6   non local SUM 2l+1 LMDIM =     18
   total plane-waves  NPLWV = 125440
   max r-space proj   IRMAX =   2106   max aug-charges    IRDMAX=   8589
   dimension x,y,z NGX =    28 NGY =   28 NGZ =  160
   dimension x,y,z NGXF=    56 NGYF=   56 NGZF=  320
   support grid    NGXF=    56 NGYF=   56 NGZF=  320
   ions per type =               3   1   3   1   3   1   3   1   1   1
   NGX,Y,Z   is equivalent  to a cutoff of   8.82,  8.82,  8.73 a.u.
   NGXF,Y,Z  is equivalent  to a cutoff of  17.64, 17.64, 17.46 a.u.

 SYSTEM =  Cu-Ag alloy CO adsorption (RPBE, matches
 POSCAR =  Cu Ag Cu Ag Cu Ag Cu Ag C  O            

 Startparameter for this run:
   NWRITE =      2    write-flag & timer
   PREC   = normal    normal or accurate (medium, high low for compatibility)
   ISTART =      0    job   : 0-new  1-cont  2-samecut
   ICHARG =      2    charge: 1-file 2-atom 10-const
   ISPIN  =      1    spin polarized calculation?
   LNONCOLLINEAR =      F non collinear calculations
   LSORBIT =      F    spin-orbit coupling
   INIWAV =      1    electr: 0-lowe 1-rand  2-diag
   LASPH  =      F    aspherical Exc in radial PAW
 Electronic Relaxation 1
   ENCUT  =  450.0 eV  33.07 Ry    5.75 a.u.   9.13  9.13 52.69*2*pi/ulx,y,z
   ENINI  =  450.0     initial cutoff
   ENAUG  =  644.9 eV  augmentation charge cutoff
   NELM   =    200;   NELMIN=  2; NELMDL= -5     # of ELM steps 
   EDIFF  = 0.1E-05   stopping-criterion for ELM
   LREAL  =      T    real-space projection
   NLSPLINE    = F    spline interpolate recip. space projectors
   LCOMPAT=      F    compatible to vasp.4.4
   GGA_COMPAT  = T    GGA compatible to vasp.4.4-vasp.4.6
   LMAXPAW     = -100 max onsite density
   LMAXMIX     =    2 max onsite mixed and CHGCAR
   VOSKOWN=      0    Vosko Wilk Nusair interpolation
   ROPT   =   -0.00050  -0.00050  -0.00050  -0.00050
   ROPT   =   -0.00050  -0.00050  -0.00050  -0.00050
   ROPT   =   -0.00050  -0.00050
 Ionic relaxation
   EDIFFG = -.3E-01   stopping-criterion for IOM
   NSW    =    200    number of steps for IOM
   NBLOCK =      1;   KBLOCK =    200    inner block; outer block 
   IBRION =      2    ionic relax: 0-MD 1-quasi-New 2-CG
   NFREE  =      1    steps in history (QN), initial steepest desc. (CG)
   ISIF   =      2    stress and relaxation
   IWAVPR =     11    prediction:  0-non 1-charg 2-wave 3-comb
   ISYM   =      2    0-nonsym 1-usesym 2-fastsym
   LCORR  =      T    Harris-Foulkes like correction to forces

   POTIM  = 0.5000    time-step for ionic-motion
   TEIN   =    0.0    initial temperature
   TEBEG  =    0.0;   TEEND  =   0.0 temperature during run
   SMASS  =  -3.00    Nose mass-parameter (am)
   estimated Nose-frequenzy (Omega)   =  0.10E-29 period in steps = 0.13E+47 mass=  -0.637E-27a.u.
   SCALEE = 1.0000    scale energy and forces
   NPACO  =    256;   APACO  = 10.0  distance and # of slots for P.C.
   PSTRESS=    0.0 pullay stress

  Mass of Ions in am
   POMASS =  63.55107.87 63.55107.87 63.55107.87 63.55107.87
   POMASS =  12.01 16.00
  Ionic Valenz
   ZVAL   =  11.00 11.00 11.00 11.00 11.00 11.00 11.00 11.00
   ZVAL   =   4.00  6.00
  Atomic Wigner-Seitz radii
   RWIGS  =  -1.00 -1.00 -1.00 -1.00 -1.00 -1.00 -1.00 -1.00
   RWIGS  =  -1.00 -1.00
  virtual crystal weights 
   VCA    =   1.00  1.00  1.00  1.00  1.00  1.00  1.00  1.00
   VCA    =   1.00  1.00
   NELECT =     186.0000    total number of electrons
   NUPDOWN=      -1.0000    fix difference up-down

 DOS related values:
   EMIN   =  10.00;   EMAX   =-10.00  energy-range for DOS
   EFERMI =   0.00;   METHOD = LEGACY      
   ISMEAR =     0;   SIGMA  =   0.10  broadening in eV -4-tet -1-fermi 0-gaus
   EFERMI_NEDOS =   21; number of points for ismear=-14 and -15

 Electronic relaxation 2 (details)
   IALGO  =     38    algorithm
   LDIAG  =      T    sub-space diagonalisation (order eigenvalues)
   LSUBROT=      F    optimize rotation matrix (better conditioning)
[...]
     97       0.6856      0.00000
     98       1.3574      0.00000
     99       1.5074      0.00000
    100       1.7212      0.00000
    101       2.0671      0.00000
    102       2.2578      0.00000
    103       2.7436      0.00000
    104       3.1159      0.00000
    105       3.8347      0.00000
    106       4.0503      0.00000
    107       4.2136      0.00000
    108       4.8448      0.00000
    109       4.9301      0.00000
    110       5.2480      0.00000
    111       5.3495      0.00000

 k-point    10 :      -0.2500    0.2500    0.0000
  band No.  band energies     occupation 
      1     -24.2379      2.00000
      2     -11.0367      2.00000
      3      -8.1659      2.00000
      4      -7.8615      2.00000
      5      -7.6343      2.00000
      6      -7.5671      2.00000
      7      -7.0930      2.00000
      8      -7.0171      2.00000
      9      -6.9309      2.00000
     10      -6.7902      2.00000
     11      -6.6598      2.00000
     12      -6.5482      2.00000
     13      -6.4324      2.00000
     14      -6.3334      2.00000
     15      -6.2175      2.00000
     16      -6.1726      2.00000
     17      -6.0967      2.00000
     18      -5.9741      2.00000
     19      -5.9371      2.00000
     20      -5.8081      2.00000
     21      -5.8049      2.00000
     22      -5.7455      2.00000
     23      -5.6784      2.00000
     24      -5.6395      2.00000
     25      -5.4623      2.00000
     26      -5.3968      2.00000
     27      -5.3518      2.00000
     28      -5.2335      2.00000
     29      -5.0653      2.00000
     30      -4.9217      2.00000
     31      -4.7776      2.00000
     32      -4.6890      2.00000
     33      -4.6152      2.00000
     34      -4.5061      2.00000
     35      -4.4543      2.00000
     36      -4.3573      2.00000
     37      -4.3368      2.00000
     38      -4.2805      2.00000
     39      -4.2377      2.00000
     40      -4.2014      2.00000
     41      -4.1631      2.00000
     42      -4.1286      2.00000
     43      -4.1209      2.00000
     44      -4.0926      2.00000
     45      -4.0483      2.00000
     46      -3.9768      2.00000
     47      -3.9570      2.00000
     48      -3.9100      2.00000
     49      -3.8900      2.00000
     50      -3.8619      2.00000
     51      -3.7870      2.00000
     52      -3.7650      2.00000
     53      -3.7433      2.00000
     54      -3.7080      2.00000
     55      -3.6550      2.00000
     56      -3.6360      2.00000
     57      -3.5991      2.00000
     58      -3.5546      2.00000
     59      -3.5273      2.00000
     60      -3.4980      2.00000
     61      -3.4665      2.00000
     62      -3.4566      2.00000
     63      -3.4045      2.00000
     64      -3.3877      2.00000
     65      -3.3387      2.00000
     66      -3.2952      2.00000
     67      -3.2710      2.00000
     68      -3.2237      2.00000
     69      -3.1916      2.00000
     70      -3.1579      2.00000
     71      -3.1341      2.00000
     72      -3.1179      2.00000
     73      -3.0943      2.00000
     74      -3.0472      2.00000
     75      -3.0327      2.00000
     76      -2.9851      2.00000
     77      -2.9680      2.00000
     78      -2.9424      2.00000
     79      -2.8984      2.00000
     80      -2.8616      2.00000
     81      -2.8255      2.00000
     82      -2.7868      2.00000
     83      -2.7649      2.00000
     84      -2.7472      2.00000
     85      -2.6894      2.00000
     86      -2.6754      2.00000
     87      -2.6182      2.00000
     88      -2.5279      2.00000
     89      -2.4819      2.00000
     90      -2.4405      2.00000
     91      -2.3936      2.00000
     92      -1.8226      2.00000
     93      -1.4198      2.00000
     94      -1.0803      1.52374
     95       0.0359      0.00000
     96       0.2401      0.00000
     97       0.6723      0.00000
     98       1.3599      0.00000
     99       1.4691      0.00000
    100       1.6649      0.00000
    101       2.0851      0.00000
    102       2.2840      0.00000
    103       2.7878      0.00000
    104       3.1041      0.00000
    105       3.8182      0.00000
    106       4.0915      0.00000
    107       4.1700      0.00000
    108       4.8615      0.00000
    109       4.9174      0.00000
    110       5.2413      0.00000
    111       5.3467      0.00000


--------------------------------------------------------------------------------------------------------


 soft charge-density along one line, spin component            1
         0         1         2         3         4         5         6         7         8         9
 total charge-density along one line
 
 pseudopotential strength for first ion, spin component:            1
 -8.934  -0.001  -0.002  -0.004  -0.001  -0.163   0.001   0.001
 -0.001  -8.883   0.000   0.001  -0.003   0.001  -0.204  -0.000
 -0.002   0.000  -8.873   0.000  -0.001   0.001  -0.000  -0.211
 -0.004   0.001   0.000  -8.881  -0.001   0.003  -0.001  -0.000
 -0.001  -0.003  -0.001  -0.001  -8.933   0.001   0.002   0.001
 -0.163   0.001   0.001   0.003   0.001   7.118  -0.000  -0.000
  0.001  -0.204  -0.000  -0.001   0.002  -0.000   7.147   0.000
  0.001  -0.000  -0.211  -0.000   0.001  -0.000   0.000   7.152
  0.003  -0.001  -0.000  -0.204   0.001  -0.002  -0.000   0.000
  0.001   0.002   0.001   0.001  -0.163  -0.000  -0.002  -0.000
 -0.000  -0.000  -0.009  -0.000  -0.000  -0.001   0.000   0.003
  0.000  -0.000  -0.017  -0.001   0.000  -0.002   0.000   0.005
 -0.001  -0.008   0.000   0.000   0.001   0.000   0.007  -0.000
  0.000  -0.000  -0.008  -0.001   0.000  -0.000   0.000   0.006
  0.000   0.000   0.000  -0.008  -0.001  -0.000  -0.000  -0.000
 -0.001  -0.009   0.000   0.000   0.001   0.001   0.009  -0.000
  0.000  -0.000  -0.008  -0.001   0.000  -0.000   0.000   0.007
  0.000   0.000   0.001  -0.009  -0.001  -0.000  -0.000  -0.000
 total augmentation occupancy for first ion, spin component:            1
  1.903   0.001   0.001  -0.004  -0.001  -0.020   0.000   0.001   0.004   0.001  -0.004   0.000   0.002   0.001   0.008  -0.001
  0.001   1.929   0.001  -0.002  -0.005   0.000  -0.037  -0.000  -0.001   0.004   0.002   0.001   0.008  -0.001   0.001  -0.009
  0.001   0.001   1.924   0.002   0.001   0.001  -0.000  -0.033  -0.001   0.001   0.014   0.011   0.001   0.046   0.002   0.000
 -0.004  -0.002   0.002   1.927   0.001   0.004  -0.001  -0.001  -0.037   0.000   0.005   0.001   0.001  -0.001   0.010  -0.000
 -0.001  -0.005   0.001   0.001   1.903   0.001   0.004   0.001   0.000  -0.021  -0.003   0.000   0.006   0.001   0.001  -0.000
 -0.020   0.000   0.001   0.004   0.001   0.012   0.000   0.001   0.000   0.001  -0.007   0.001  -0.000  -0.000   0.001   0.000
  0.000  -0.037  -0.000  -0.001   0.004   0.000   0.008   0.000  -0.000   0.000  -0.001  -0.000   0.013   0.000  -0.000  -0.001
  0.001  -0.000  -0.033  -0.001   0.001   0.001   0.000   0.012   0.000   0.001  -0.044   0.003  -0.000   0.019  -0.001   0.000
  0.004  -0.001  -0.001  -0.037   0.000   0.000  -0.000   0.000   0.008   0.000  -0.001  -0.000  -0.000   0.000   0.013   0.000
  0.001   0.004   0.001   0.000  -0.021   0.001   0.000   0.001   0.000   0.012  -0.004   0.001   0.002  -0.000  -0.000  -0.000
 -0.004   0.002   0.014   0.005  -0.003  -0.007  -0.001  -0.044  -0.001  -0.004   1.576  -0.115   0.000   0.103   0.001  -0.000
  0.000   0.001   0.011   0.001   0.000   0.001  -0.000   0.003  -0.000   0.001  -0.115   0.014   0.000  -0.018   0.000  -0.000
  0.002   0.008   0.001   0.001   0.006  -0.000   0.013  -0.000  -0.000   0.002   0.000   0.000   0.186  -0.003  -0.008  -0.011
  0.001  -0.001   0.046  -0.001   0.001  -0.000   0.000   0.019   0.000  -0.000   0.103  -0.018  -0.003   0.105  -0.006   0.000
  0.008   0.001   0.002   0.010   0.001   0.001  -0.000  -0.001   0.013  -0.000   0.001   0.000  -0.008  -0.006   0.177   0.001
 -0.001  -0.009   0.000  -0.000  -0.000   0.000  -0.001   0.000   0.000  -0.000  -0.000  -0.000  -0.011   0.000   0.001   0.001
 -0.000  -0.000  -0.014  -0.001  -0.000   0.000   0.000  -0.001   0.000   0.000  -0.016   0.002   0.000  -0.007   0.000  -0.000
 -0.001  -0.000   0.000  -0.009  -0.001  -0.000   0.000   0.000  -0.001   0.000  -0.000  -0.000   0.001   0.000  -0.010  -0.000


------------------------ aborting loop because EDIFF is reached ----------------------------------------





 total charge

# of ion       s       p       d       tot
------------------------------------------
    1        0.429   0.253   9.191   9.873
    2        0.430   0.255   9.201   9.886
    3        0.429   0.255   9.201   9.885
    4        0.494   0.334   9.138   9.967
    5        0.417   0.317   9.192   9.926
    6        0.413   0.322   9.187   9.922
    7        0.412   0.321   9.196   9.929
    8        0.477   0.424   9.131  10.032
    9        0.413   0.309   9.192   9.914
   10        0.415   0.311   9.182   9.908
   11        0.415   0.325   9.170   9.910
   12        0.478   0.401   9.125  10.004
   13        0.425   0.324   9.180   9.929
   14        0.424   0.330   9.175   9.929
   15        0.419   0.325   9.171   9.915
   16        0.455   0.276   9.169   9.901
   17        0.935   1.534   0.000   2.469
   18        1.626   3.497   0.000   5.123
--------------------------------------------------
tot          9.508  10.114 146.802 166.424
 
    CHARGE:  cpu time      0.1380: real time      0.1383
    FORLOC:  cpu time      0.0156: real time      0.0157
    FORNL :  cpu time      0.4565: real time      0.4574
    STRESS:  cpu time      1.3007: real time      1.3032
    FORCOR:  cpu time      0.0241: real time      0.0242
    FORHAR:  cpu time      0.0165: real time      0.0165
    MIXING:  cpu time      0.0125: real time      0.0126
    OFIELD:  cpu time      0.0000: real time      0.0000

  FORCE on cell =-STRESS in cart. coord.  units (eV):
  Direction    XX          YY          ZZ          XY          YZ          ZX
  --------------------------------------------------------------------------------------
  Alpha Z   291.17667   291.17667   291.17667
  Ewald  152281.48876152240.62010************     5.26562    27.06399     2.41891
  Hartree157649.04222157621.47716************     4.39385    11.95205     2.83262
  E(xc)   -1049.00044 -1049.05608 -1051.07411    -0.00248     0.10004    -0.01478
  Local  ************************315402.05971   -10.02845   -37.28507    -5.46130
  n-local  -306.39685  -306.48477  -318.19994     0.16179    -0.05972     0.15567
  augment  1505.30884  1505.48406  1513.73435     0.10404    -0.19822     0.00886
  Kinetic  1807.89638  1807.85721  1798.66305     0.33861    -1.28379     0.24935
  Fock        0.00000     0.00000     0.00000     0.00000     0.00000     0.00000
  -------------------------------------------------------------------------------------
  Total       5.74708     5.42678     2.45441     0.23298     0.28927     0.18933
  in kB      12.52558    11.82750     5.34930     0.50777     0.63046     0.41265
  external pressure =        9.90 kB  Pullay stress =        0.00 kB


 VOLUME and BASIS-vectors are now :
 -----------------------------------------------------------------------------
  energy-cutoff  :      450.00
  volume of cell :      735.12
      direct lattice vectors                 reciprocal lattice vectors
     5.278552122  0.000000000  0.000000000     0.189445889 -0.109376635  0.000000000
     2.639276061  4.571360232  0.000000000     0.000000000  0.218753270  0.000000000
     0.000000000  0.000000000 30.464879639     0.000000000  0.000000000  0.032824682

  length of vectors
     5.278552122  5.278552122 30.464879639     0.218753270  0.218753270  0.032824682


 FORCES acting on ions
    electron-ion (+dipol)            ewald-force                    non-local-force                 convergence-correction
 -----------------------------------------------------------------------------------------------
   0.357E+00 0.469E+00 0.403E+04   -.188E+00 -.434E+00 -.403E+04   -.140E+00 -.244E-01 -.183E+01   0.132E-03 0.172E-04 0.103E-01
   -.366E+00 0.158E+01 0.403E+04   0.188E+00 -.105E+01 -.403E+04   0.149E+00 -.276E+00 -.163E+01   -.146E-03 0.168E-03 0.102E-01
   0.964E+00 -.124E+01 0.404E+04   -.535E+00 0.850E+00 -.403E+04   -.216E+00 0.235E+00 -.161E+01   0.123E-03 -.188E-03 0.103E-01
   -.930E+00 -.827E+00 0.403E+04   0.529E+00 0.633E+00 -.403E+04   0.504E-01 -.629E-04 -.214E+01   -.116E-03 -.133E-04 0.953E-02
   0.806E+01 0.994E+01 0.152E+04   -.795E+01 -.950E+01 -.152E+04   -.157E+00 -.314E+00 -.920E+00   0.358E-06 0.228E-03 0.130E-01
   -.651E+01 0.127E+02 0.151E+04   0.641E+01 -.130E+02 -.151E+04   0.110E+00 -.847E-02 -.123E+01   -.378E-04 0.387E-04 0.131E-01
   0.274E+01 -.158E+02 0.151E+04   -.328E+01 0.156E+02 -.151E+04   0.190E+00 0.265E+00 -.884E+00   -.158E-03 -.160E-03 0.129E-01
   -.201E+01 -.709E+01 0.149E+04   0.254E+01 0.711E+01 -.149E+04   0.347E-01 0.114E+00 -.344E-01   0.133E-03 -.144E-03 0.126E-01
   0.209E+02 -.242E+02 -.989E+03   -.204E+02 0.235E+02 0.988E+03   -.572E+00 0.649E+00 0.659E+00   -.720E-03 -.852E-03 -.617E-03
   -.203E+02 -.857E+01 -.913E+03   0.198E+02 0.835E+01 0.912E+03   0.418E+00 0.207E+00 0.124E+01   -.574E-03 -.432E-03 -.576E-03
   0.108E+02 0.444E+01 -.106E+04   -.107E+02 -.420E+01 0.106E+04   -.158E+00 -.246E+00 -.575E+00   -.408E-03 -.267E-03 -.157E-02
   -.131E+02 0.307E+02 -.105E+04   0.129E+02 -.301E+02 0.105E+04   0.246E+00 -.534E+00 0.397E+00   -.416E-03 -.150E-03 -.110E-02
   0.589E+02 0.508E+02 -.349E+04   -.620E+02 -.519E+02 0.349E+04   0.305E+01 0.112E+01 0.749E+00   -.679E-03 -.854E-04 -.697E-02
   -.573E+02 0.478E+02 -.346E+04   0.605E+02 -.491E+02 0.346E+04   -.320E+01 0.128E+01 0.512E+00   0.688E-04 -.119E-03 -.728E-02
   -.285E+01 -.728E+02 -.335E+04   0.272E+01 0.761E+02 0.334E+04   0.124E+00 -.329E+01 0.144E+01   -.298E-03 0.362E-03 -.797E-02
   0.206E+01 -.154E+02 -.368E+04   -.200E+01 0.152E+02 0.368E+04   -.717E-01 0.301E+00 0.213E+01   -.223E-03 -.289E-03 -.646E-02
   -.214E+01 0.143E+01 -.152E+04   0.231E+01 -.224E+01 0.150E+04   -.171E+00 0.822E+00 0.133E+02   0.933E-04 0.249E-03 -.299E-02
   0.608E+00 -.116E+02 -.262E+04   -.983E+00 0.142E+02 0.268E+04   0.376E+00 -.266E+01 -.562E+02   0.141E-03 0.639E-03 -.255E-02
 -----------------------------------------------------------------------------------------------
   -.633E-01 0.235E+01 0.466E+02   0.117E-12 0.355E-13 0.273E-11   0.585E-01 -.236E+01 -.467E+02   -.308E-02 -.998E-03 0.539E-01
 
 
 POSITION                                       TOTAL-FORCE (eV/Angst)
 -----------------------------------------------------------------------------------
      0.00000      0.00000     12.00000         0.029727      0.011469      0.154223
      2.63928      0.00000     12.00000        -0.028906      0.258074     -0.178238
      1.31964      2.28568     12.00000         0.213544     -0.153290     -0.174571
      3.95891      2.28568     12.00000        -0.349709     -0.193322     -1.454901
      1.31964      0.76189     14.15496        -0.050288      0.118005      0.034730
      3.95891      0.76189     14.15496         0.011219     -0.263031      0.550241
      2.63928      3.04757     14.15496        -0.357479      0.091154      0.289637
      5.27855      3.04757     14.15496         0.564105      0.135730      0.807449
      5.23646      1.51021     16.37054         0.005364     -0.016338     -0.001087
      2.60864      1.52686     16.27783        -0.014118     -0.013961     -0.020593
      6.57343      3.82873     16.47605        -0.010993     -0.000941      0.001402
      3.91119      3.82681     16.42517         0.011591     -0.000702     -0.006785
      7.87668      4.55425     18.66382         0.009413     -0.001126      0.017248
      5.29845      4.55971     18.63645        -0.017358     -0.004337      0.013793
      1.31685      2.24845     18.51155        -0.004696      0.009193     -0.007396
      3.95299      2.26134     18.82070        -0.011448      0.013201     -0.007799
      1.33317      0.75590     20.01803        -0.001830      0.008557     -0.025277
      1.32472      0.81224     21.20633         0.001863      0.001664      0.007921
 -----------------------------------------------------------------------------------
    total drift:                               -0.007862     -0.008711      0.005718


--------------------------------------------------------------------------------------------------------



  FREE ENERGIE OF THE ION-ELECTRON SYSTEM (eV)
  ---------------------------------------------------
  free  energy   TOTEN  =       -58.27620232 eV

  energy  without entropy=      -58.22369726  energy(sigma->0) =      -58.24994979
 d Force = 0.6456552E-04[ 0.315E-04, 0.977E-04]  d Energy = 0.6322123E-04 0.134E-05
 d Force = 0.6893692E+00[ 0.689E+00, 0.690E+00]  d Ewald  = 0.6893692E+00 0.699E-07
 


--------------------------------------------------------------------------------------------------------


    POTLOK:  cpu time      0.0292: real time      0.0292


--------------------------------------------------------------------------------------------------------


 Conjugate gradient step on ions:
 trial-energy change:   -0.000063  1 .order   -0.000065   -0.000098   -0.000031
  (g-gl).g = 0.774E-04      g.g   = 0.896E-03  gl.gl    = 0.855E-03
 g(Force)  = 0.896E-03   g(Stress)= 0.000E+00 ortho     = 0.175E-04
 gamma     =   0.09058
 trial     =   0.10880
 opt step  =   0.16055  (harmonic =   0.16055) maximal distance =0.00058555
 next E    =   -58.276211   (d E  =  -0.00007)


--------------------------------------------------------------------------------------------------------


  
 reached required accuracy - stopping structural energy minimisation
     LOOP+:  cpu time     11.8988: real time     11.9334
    4ORBIT:  cpu time      0.0000: real time      0.0000



 total charge

# of ion       s       p       d       tot
------------------------------------------
    1        0.429   0.253   9.191   9.873
    2        0.430   0.255   9.201   9.886
    3        0.429   0.255   9.201   9.885
    4        0.494   0.334   9.138   9.967
    5        0.417   0.317   9.192   9.926
    6        0.413   0.322   9.187   9.922
    7        0.412   0.321   9.196   9.929
    8        0.477   0.424   9.131  10.032
    9        0.413   0.309   9.192   9.914
   10        0.415   0.311   9.182   9.908
   11        0.415   0.325   9.170   9.910
   12        0.478   0.401   9.125  10.004
   13        0.425   0.324   9.180   9.929
   14        0.424   0.330   9.175   9.929
   15        0.419   0.325   9.171   9.915
   16        0.455   0.276   9.169   9.901
   17        0.935   1.534   0.000   2.469
   18        1.626   3.497   0.000   5.123
--------------------------------------------------
tot          9.508  10.114 146.802 166.424
 

 total amount of memory used by VASP MPI-rank0   486319. kBytes
=======================================================================

   base                                    :      30000. kBytes
   nonlr-proj                              :       5856. kBytes
   fftplans                                :      34344. kBytes
   grid                                    :     126104. kBytes
   one-center                              :        279. kBytes
   wavefun                                 :     289736. kBytes
 
  
  
 General timing and accounting informations for this job:
 ========================================================
  
                  Total CPU time used (sec):      984.556
                            User time (sec):      982.071
                          System time (sec):        2.485
                         Elapsed time (sec):      987.477
  
                   Maximum memory used (kb):     2093876.
                   Average memory used (kb):          N/A
  
                          Minor page faults:      1453484
                          Major page faults:            0
                 Voluntary context switches:        23505
