PROCAR lm decomposed
# of k-points:   10         # of bands:  111         # of ions:   18

 k-point     1 :    0.00000000 0.00000000 0.00000000     weight = 0.06250000

band     1 # energy  -24.23849475 # occ.  2.00000000
 
ion      s     py     pz     px    dxy    dyz    dz2    dxz  x2-y2    tot
    1  0.000  0.000  0.000  0.000  0.000  0.000  0.000  0.000  0.000  0.000
    2  0.000  0.000  0.000  0.000  0.000  0.000  0.000  0.000  0.000  0.000
    3  0.000  0.000  0.000  0.000  0.000  0.000  0.000  0.000  0.000  0.000
    4  0.000  0.000  0.000  0.000  0.000  0.000  0.000  0.000  0.000  0.000
    5  0.000  0.000  0.000  0.000  0.000  0.000  0.000  0.000  0.000  0.000
    6  0.000  0.000  0.000  0.000  0.000  0.000  0.000  0.000  0.000  0.000
    7  0.000  0.000  0.000  0.000  0.000  0.000  0.000  0.000  0.000  0.000
    8  0.000  0.000  0.000  0.000  0.000  0.000  0.000  0.000  0.000  0.000
    9  0.000  0.000  0.000  0.000  0.000  0.000  0.000  0.000  0.000  0.000
   10  0.000  0.000  0.000  0.000  0.000  0.000  0.000  0.000  0.000  0.000
   11  0.000  0.000  0.000  0.000  0.000  0.000  0.000  0.000  0.000  0.000
   12  0.000  0.000  0.000  0.000  0.000  0.000  0.000  0.000  0.000  0.000
   13  0.000  0.000  0.000  0.000  0.000  0.000  0.000  0.000  0.000  0.000
   14  0.000  0.000  0.000  0.000  0.000  0.000  0.000  0.000  0.000  0.000
   15  0.000  0.000  0.000  0.000  0.000  0.000  0.000  0.000  0.000  0.000
   16  0.000  0.000  0.000  0.000  0.000  0.000  0.000  0.000  0.000  0.000
   17  0.154  0.000  0.103  0.000  0.000  0.000  0.000  0.000  0.000  0.257
   18  0.639  0.000  0.087  0.000  0.000  0.000  0.000  0.000  0.000  0.726
tot    0.793  0.000  0.190  0.000  0.000  0.000  0.000  0.000  0.000  0.984
 
band     2 # energy  -11.17543600 # occ.  2.00000000
 
ion      s     py     pz     px    dxy    dyz    dz2    dxz  x2-y2    tot
    1  0.000  0.000  0.000  0.000  0.000  0.000  0.000  0.000  0.000  0.000
    2  0.000  0.000  0.000  0.000  0.000  0.000  0.000  0.000  0.000  0.000
    3  0.000  0.000  0.000  0.000  0.000  0.000  0.000  0.000  0.000  0.000
    4  0.000  0.000  0.000  0.000  0.000  0.000  0.000  0.000  0.000  0.000
    5  0.000  0.000  0.000  0.000  0.000  0.000  0.000  0.000  0.000  0.000
    6  0.000  0.000  0.000  0.000  0.000  0.000  0.000  0.000  0.000  0.000
    7  0.000  0.000  0.000  0.000  0.000  0.000  0.000  0.000  0.000  0.000
    8  0.000  0.000  0.000  0.000  0.000  0.000  0.000  0.000  0.000  0.000
    9  0.001  0.000  0.000  0.000  0.000  0.000  0.000  0.000  0.000  0.002
   10  0.001  0.000  0.000  0.000  0.000  0.000  0.000  0.000  0.000  0.002
   11  0.002  0.000  0.000  0.000  0.000  0.000  0.000  0.000  0.000  0.003
   12  0.002  0.000  0.000  0.000  0.000  0.000  0.000  0.000  0.000  0.003
   13  0.035  0.002  0.003  0.006  0.003  0.002  0.000  0.007  0.001  0.059
   14  0.036  0.002  0.003  0.006  0.004  0.003  0.000  0.008  0.001  0.062
   15  0.032  0.006  0.003  0.000  0.000  0.009  0.000  0.000  0.003  0.054
   16  0.010  0.000  0.000  0.000  0.000  0.000  0.003  0.000  0.000  0.013
   17  0.257  0.000  0.028  0.000  0.000  0.000  0.000  0.000  0.000  0.285
   18  0.103  0.000  0.083  0.000  0.000  0.000  0.000  0.000  0.000  0.187
tot    0.482  0.010  0.122  0.011  0.007  0.014  0.004  0.014  0.006  0.669
 
band     3 # energy   -9.25182783 # occ.  2.00000000
 
ion      s     py     pz     px    dxy    dyz    dz2    dxz  x2-y2    tot
    1  0.022  0.000  0.002  0.000  0.000  0.000  0.000  0.000  0.000  0.024
    2  0.022  0.000  0.002  0.000  0.000  0.000  0.000  0.000  0.000  0.024
    3  0.022  0.000  0.002  0.000  0.000  0.000  0.000  0.000  0.000  0.024
    4  0.028  0.000  0.003  0.000  0.000  0.000  0.000  0.000  0.000  0.031
    5  0.059  0.000  0.000  0.000  0.000  0.000  0.000  0.000  0.000  0.059
    6  0.059  0.000  0.000  0.000  0.000  0.000  0.000  0.000  0.000  0.059
    7  0.059  0.000  0.000  0.000  0.000  0.000  0.000  0.000  0.000  0.059
    8  0.074  0.000  0.000  0.000  0.000  0.000  0.002  0.000  0.000  0.076
    9  0.036  0.000  0.001  0.000  0.000  0.000  0.000  0.000  0.000  0.037
   10  0.038  0.000  0.001  0.000  0.000  0.000  0.000  0.000  0.000  0.039
   11  0.035  0.000  0.001  0.000  0.000  0.000  0.000  0.000  0.000  0.035
   12  0.046  0.000  0.001  0.000  0.000  0.000  0.000  0.000  0.000  0.047
   13  0.005  0.000  0.001  0.000  0.000  0.000  0.000  0.000  0.000  0.006
   14  0.005  0.000  0.001  0.000  0.000  0.000  0.000  0.000  0.000  0.006
   15  0.006  0.000  0.001  0.000  0.000  0.000  0.000  0.000  0.000  0.007
   16  0.006  0.000  0.001  0.000  0.000  0.000  0.000  0.000  0.000  0.007
   17  0.008  0.000  0.002  0.000  0.000  0.000  0.000  0.000  0.000  0.010
   18  0.008  0.000  0.024  0.000  0.000  0.000  0.000  0.000  0.000  0.032
tot    0.535  0.000  0.042  0.000  0.000  0.000  0.003  0.000  0.000  0.581
 
band     4 # energy   -8.42715499 # occ.  2.00000000
 
ion      s     py     pz     px    dxy    dyz    dz2    dxz  x2-y2    tot
    1  0.016  0.000  0.001  0.000  0.000  0.000  0.000  0.000  0.000  0.017
    2  0.015  0.000  0.001  0.000  0.000  0.000  0.000  0.000  0.000  0.016
    3  0.015  0.000  0.001  0.000  0.000  0.000  0.000  0.000  0.000  0.017
    4  0.019  0.000  0.001  0.000  0.000  0.000  0.002  0.000  0.000  0.022
    5  0.012  0.000  0.001  0.000  0.000  0.000  0.000  0.000  0.000  0.014
    6  0.011  0.000  0.001  0.000  0.000  0.000  0.000  0.000  0.000  0.013
    7  0.011  0.000  0.001  0.000  0.000  0.000  0.000  0.000  0.000  0.013
    8  0.013  0.000  0.002  0.000  0.000  0.000  0.004  0.000  0.000  0.019
    9  0.007  0.000  0.002  0.000  0.000  0.000  0.000  0.000  0.000  0.009
   10  0.005  0.000  0.002  0.000  0.000  0.000  0.000  0.000  0.000  0.007
   11  0.010  0.000  0.002  0.000  0.000  0.000  0.000  0.000  0.000  0.012
   12  0.009  0.000  0.003  0.000  0.000  0.001  0.001  0.000  0.000  0.014
   13  0.031  0.000  0.000  0.000  0.001  0.000  0.003  0.000  0.000  0.036
   14  0.031  0.000  0.000  0.000  0.001  0.000  0.003  0.001  0.000  0.036
   15  0.032  0.000  0.000  0.000  0.000  0.001  0.002  0.000  0.001  0.037
   16  0.021  0.000  0.001  0.000  0.000  0.000  0.007  0.000  0.000  0.029
   17  0.011  0.000  0.080  0.000  0.000  0.000  0.000  0.000  0.000  0.091
   18  0.049  0.001  0.262  0.000  0.000  0.000  0.000  0.000  0.000  0.311
tot    0.317  0.002  0.361  0.001  0.002  0.002  0.025  0.001  0.002  0.714
 
band     5 # energy   -7.68232087 # occ.  2.00000000
 
ion      s     py     pz     px    dxy    dyz    dz2    dxz  x2-y2    tot
    1  0.028  0.000  0.000  0.000  0.000  0.000  0.003  0.000  0.000  0.031
    2  0.027  0.000  0.000  0.000  0.000  0.000  0.003  0.000  0.000  0.031
    3  0.031  0.000  0.000  0.000  0.000  0.000  0.002  0.000  0.000  0.034
    4  0.028  0.000  0.000  0.000  0.000  0.000  0.034  0.000  0.000  0.062
    5  0.001  0.000  0.005  0.000  0.000  0.000  0.000  0.000  0.001  0.008
    6  0.000  0.000  0.005  0.000  0.000  0.000  0.000  0.000  0.000  0.006
    7  0.001  0.000  0.005  0.000  0.001  0.000  0.000  0.001  0.000  0.007
    8  0.000  0.000  0.007  0.000  0.006  0.000  0.001  0.006  0.000  0.020
    9  0.040  0.000  0.000  0.000  0.000  0.000  0.004  0.000  0.000  0.044
   10  0.037  0.000  0.000  0.000  0.000  0.000  0.004  0.000  0.000  0.042
   11  0.038  0.000  0.000  0.000  0.000  0.000  0.005  0.000  0.000  0.043
   12  0.035  0.000  0.000  0.000  0.000  0.001  0.059  0.000  0.000  0.095
   13  0.002  0.000  0.004  0.003  0.001  0.001  0.003  0.003  0.003  0.020
   14  0.002  0.000  0.004  0.003  0.001  0.001  0.003  0.004  0.003  0.021
   15  0.000  0.001  0.004  0.000  0.000  0.003  0.003  0.000  0.004  0.015
   16  0.001  0.000  0.002  0.000  0.000  0.000  0.009  0.000  0.003  0.015
   17  0.002  0.005  0.062  0.000  0.000  0.000  0.000  0.000  0.000  0.068
   18  0.011  0.004  0.110  0.000  0.000  0.000  0.000  0.000  0.000  0.125
tot    0.282  0.012  0.209  0.006  0.010  0.007  0.134  0.013  0.016  0.689
 
band     6 # energy   -7.57642964 # occ.  2.00000000
 
ion      s     py     pz     px    dxy    dyz    dz2    dxz  x2-y2    tot
    1  0.000  0.000  0.000  0.000  0.000  0.000  0.000  0.000  0.000  0.000
    2  0.000  0.000  0.000  0.000  0.000  0.000  0.000  0.000  0.000  0.000
    3  0.000  0.000  0.000  0.000  0.000  0.000  0.000  0.000  0.000  0.000
    4  0.000  0.000  0.000  0.000  0.000  0.000  0.000  0.000  0.000  0.000
    5  0.000  0.000  0.000  0.000  0.000  0.000  0.000  0.000  0.000  0.000
    6  0.000  0.000  0.000  0.000  0.000  0.000  0.000  0.000  0.000  0.000
    7  0.000  0.000  0.000  0.000  0.000  0.000  0.000  0.000  0.000  0.000
    8  0.000  0.000  0.000  0.000  0.000  0.000  0.001  0.000  0.000  0.002
    9  0.000  0.000  0.000  0.000  0.000  0.000  0.000  0.000  0.000  0.001
   10  0.000  0.000  0.000  0.000  0.000  0.000  0.000  0.000  0.000  0.000
   11  0.000  0.000  0.000  0.000  0.000  0.000  0.000  0.002  0.000  0.002
   12  0.000  0.000  0.000  0.000  0.000  0.000  0.000  0.008  0.000  0.009
   13  0.015  0.001  0.002  0.001  0.001  0.007  0.003  0.004  0.003  0.036
   14  0.014  0.001  0.002  0.001  0.001  0.008  0.003  0.004  0.004  0.037
   15  0.000  0.000  0.000  0.001  0.014  0.000  0.000  0.005  0.000  0.020
   16  0.000  0.000  0.000  0.001  0.040  0.000  0.000  0.006  0.000  0.047
   17  0.000  0.000  0.000  0.179  0.000  0.000  0.000  0.000  0.000  0.179
   18  0.000  0.000  0.000  0.345  0.000  0.000  0.000  0.000  0.000  0.346
tot    0.029  0.002  0.005  0.528  0.056  0.015  0.007  0.030  0.007  0.680
 
band     7 # energy   -7.53471411 # occ.  2.00000000
 
ion      s     py     pz     px    dxy    dyz    dz2    dxz  x2-y2    tot
    1  0.001  0.000  0.000  0.000  0.000  0.000  0.000  0.000  0.000  0.001
    2  0.001  0.000  0.000  0.000  0.000  0.000  0.000  0.000  0.000  0.001
    3  0.001  0.000  0.000  0.000  0.000  0.000  0.000  0.000  0.000  0.001
    4  0.001  0.000  0.000  0.000  0.000  0.000  0.002  0.000  0.000  0.003
    5  0.000  0.000  0.000  0.000  0.000  0.000  0.000  0.000  0.000  0.000
    6  0.000  0.000  0.000  0.000  0.000  0.000  0.000  0.000  0.000  0.000
    7  0.000  0.000  0.000  0.000  0.000  0.000  0.000  0.000  0.000  0.000
    8  0.000  0.000  0.000  0.000  0.000  0.000  0.000  0.000  0.000  0.001
    9  0.001  0.000  0.000  0.000  0.000  0.000  0.000  0.000  0.000  0.001
   10  0.001  0.000  0.000  0.000  0.000  0.000  0.000  0.000  0.000  0.001
   11  0.001  0.000  0.000  0.000  0.000  0.001  0.000  0.000  0.000  0.002
   12  0.002  0.000  0.000  0.000  0.000  0.000  0.000  0.000  0.000  0.003
   13  0.004  0.000  0.000  0.000  0.005  0.001  0.001  0.004  0.008  0.024
   14  0.004  0.000  0.000  0.000  0.005  0.001  0.002  0.005  0.008  0.025
   15  0.016  0.002  0.004  0.000  0.000  0.012  0.003  0.000  0.000  0.037
   16  0.000  0.001  0.000  0.000  0.000  0.004  0.000  0.000  0.039  0.045
   17  0.000  0.174  0.003  0.000  0.000  0.000  0.000  0.000  0.000  0.177
   18  0.000  0.350  0.000  0.000  0.000  0.000  0.000  0.000  0.000  0.351
tot    0.032  0.527  0.009  0.001  0.010  0.020  0.009  0.009  0.056  0.674
 
band     8 # energy   -7.27110052 # occ.  2.00000000
 
ion      s     py     pz     px    dxy    dyz    dz2    dxz  x2-y2    tot
    1  0.003  0.000  0.000  0.000  0.000  0.000  0.004  0.000  0.000  0.008
    2  0.021  0.001  0.000  0.000  0.000  0.003  0.006  0.000  0.007  0.039
    3  0.018  0.000  0.000  0.001  0.005  0.000  0.008  0.004  0.003  0.038
    4  0.010  0.000  0.001  0.001  0.033  0.003  0.104  0.021  0.009  0.181
    5  0.005  0.000  0.000  0.000  0.000  0.000  0.007  0.000  0.001  0.013
    6  0.012  0.000  0.000  0.000  0.000  0.001  0.009  0.000  0.005  0.027
    7  0.026  0.000  0.000  0.000  0.001  0.000  0.007  0.000  0.004  0.039
    8  0.001  0.000  0.001  0.000  0.007  0.002  0.319  0.002  0.022  0.355
    9  0.008  0.000  0.000  0.000  0.000  0.003  0.002  0.000  0.004  0.018
   10  0.000  0.000  0.001  0.000  0.000  0.000  0.001  0.000  0.000  0.003
   11  0.004  0.000  0.000  0.000  0.003  0.000  0.004  0.003  0.001  0.017
   12  0.003  0.000  0.000  0.000  0.025  0.001  0.028  0.021  0.005  0.084
   13  0.000  0.000  0.001  0.000  0.000  0.001  0.001  0.000  0.000  0.004
   14  0.000  0.000  0.000  0.000  0.000  0.000  0.000  0.000  0.000  0.001
   15  0.000  0.000  0.001  0.000  0.000  0.001  0.000  0.000  0.000  0.002
   16  0.000  0.000  0.000  0.000  0.000  0.001  0.000  0.000  0.000  0.002
   17  0.000  0.000  0.003  0.001  0.000  0.000  0.000  0.000  0.000  0.005
   18  0.000  0.001  0.004  0.003  0.000  0.000  0.000  0.000  0.000  0.008
tot    0.111  0.003  0.012  0.008  0.076  0.016  0.500  0.053  0.063  0.843
 
band     9 # energy   -6.98428799 # occ.  2.00000000
 
ion      s     py     pz     px    dxy    dyz    dz2    dxz  x2-y2    tot
    1  0.001  0.000  0.000  0.000  0.000  0.001  0.000  0.001  0.001  0.005
    2  0.004  0.000  0.000  0.000  0.001  0.000  0.000  0.001  0.000  0.006
    3  0.001  0.000  0.001  0.000  0.000  0.000  0.005  0.000  0.000  0.007
    4  0.010  0.000  0.002  0.000  0.003  0.006  0.027  0.019  0.004  0.072
    5  0.009  0.000  0.001  0.000  0.000  0.003  0.001  0.000  0.028  0.042
    6  0.025  0.000  0.001  0.000  0.009  0.003  0.001  0.000  0.011  0.049
    7  0.002  0.000  0.000  0.000  0.034  0.000  0.000  0.008  0.002  0.046
    8  0.001  0.000  0.001  0.000  0.337  0.000  0.002  0.090  0.034  0.465
    9  0.000  0.000  0.000  0.000  0.000  0.000  0.000  0.001  0.000  0.003
   10  0.002  0.000  0.000  0.000  0.001  0.000  0.000  0.001  0.000  0.003
   11  0.001  0.000  0.001  0.000  0.000  0.000  0.001  0.000  0.000  0.004
   12  0.014  0.000  0.000  0.000  0.000  0.000  0.080  0.001  0.006  0.101
   13  0.001  0.000  0.001  0.000  0.005  0.000  0.000  0.006  0.000  0.013
   14  0.001  0.000  0.001  0.000  0.004  0.000  0.000  0.005  0.000  0.012
   15  0.000  0.000  0.000  0.000  0.000  0.002  0.000  0.000  0.001  0.003
   16  0.005  0.000  0.001  0.000  0.000  0.006  0.000  0.000  0.005  0.017
   17  0.001  0.001  0.007  0.000  0.000  0.000  0.000  0.000  0.000  0.009
   18  0.000  0.001  0.008  0.000  0.000  0.000  0.000  0.000  0.000  0.010
tot    0.078  0.003  0.026  0.001  0.394  0.022  0.117  0.134  0.092  0.867
 
band    10 # energy   -6.95630985 # occ.  2.00000000
 
ion      s     py     pz     px    dxy    dyz    dz2    dxz  x2-y2    tot
    1  0.000  0.001  0.000  0.000  0.000  0.007  0.000  0.000  0.002  0.011
    2  0.002  0.000  0.000  0.000  0.001  0.003  0.003  0.000  0.001  0.011
    3  0.000  0.001  0.000  0.000  0.003  0.003  0.000  0.002  0.000  0.010
    4  0.003  0.001  0.001  0.000  0.025  0.065  0.006  0.009  0.007  0.116
    5  0.014  0.000  0.000  0.000  0.023  0.005  0.001  0.002  0.006  0.052
    6  0.006  0.000  0.000  0.000  0.019  0.001  0.000  0.002  0.016  0.044
    7  0.021  0.000  0.000  0.000  0.001  0.000  0.000  0.001  0.017  0.041
    8  0.000  0.000  0.000  0.000  0.011  0.043  0.025  0.016  0.372  0.467
    9  0.000  0.000  0.000  0.000  0.000  0.002  0.001  0.000  0.001  0.005
   10  0.001  0.001  0.000  0.000  0.000  0.008  0.000  0.001  0.001  0.011
   11  0.000  0.000  0.000  0.000  0.002  0.003  0.000  0.002  0.000  0.007
   12  0.000  0.000  0.000  0.000  0.011  0.050  0.000  0.019  0.000  0.081
   13  0.000  0.000  0.000  0.000  0.000  0.000  0.000  0.000  0.000  0.001
   14  0.000  0.000  0.000  0.000  0.000  0.000  0.000  0.000  0.000  0.000
   15  0.000  0.000  0.000  0.000  0.000  0.000  0.000  0.000  0.000  0.001
   16  0.001  0.000  0.000  0.000  0.001  0.001  0.001  0.001  0.000  0.004
   17  0.000  0.000  0.000  0.000  0.000  0.000  0.000  0.000  0.000  0.000
   18  0.000  0.000  0.000  0.001  0.000  0.000  0.000  0.000  0.000  0.001
tot    0.048  0.006  0.002  0.003  0.096  0.191  0.038  0.056  0.425  0.865
 
band    11 # energy   -6.93332140 # occ.  2.00000000
 
ion      s     py     pz     px    dxy    dyz    dz2    dxz  x2-y2    tot
    1  0.001  0.000  0.000  0.000  0.004  0.000  0.000  0.000  0.006  0.011
    2  0.010  0.000  0.001  0.000  0.005  0.000  0.001  0.000  0.002  0.019
    3  0.007  0.000  0.001  0.000  0.000  0.000  0.000  0.004  0.007  0.019
    4  0.002  0.000  0.002  0.001  0.004  0.000  0.030  0.032  0.100  0.171
    5  0.003  0.000  0.000  0.000  0.002  0.012  0.000  0.008  0.001  0.025
    6  0.000  0.000  0.000  0.000  0.001  0.012  0.001  0.008  0.005  0.027
    7  0.003  0.000  0.000  0.000  0.001  0.002  0.000  0.000  0.004  0.010
    8  0.005  0.000  0.000  0.000  0.008  0.290  0.024  0.000  0.045  0.373
    9  0.012  0.000  0.001  0.000  0.004  0.000  0.001  0.000  0.002  0.020
   10  0.001  0.000  0.000  0.000  0.003  0.000  0.000  0.000  0.007  0.012
   11  0.006  0.000  0.000  0.000  0.001  0.000  0.001  0.003  0.006  0.018
   12  0.001  0.000  0.000  0.000  0.005  0.003  0.025  0.024  0.090  0.149
   13  0.000  0.001  0.000  0.000  0.001  0.002  0.000  0.001  0.000  0.005
   14  0.000  0.000  0.000  0.000  0.001  0.000  0.000  0.000  0.000  0.001
   15  0.000  0.000  0.000  0.000  0.000  0.000  0.000  0.000  0.000  0.001
   16  0.000  0.000  0.000  0.000  0.000  0.003  0.005  0.002  0.002  0.013
   17  0.000  0.000  0.001  0.000  0.000  0.000  0.000  0.000  0.000  0.001
   18  0.000  0.001  0.001  0.001  0.000  0.000  0.000  0.000  0.000  0.003
tot    0.053  0.003  0.007  0.003  0.040  0.326  0.088  0.082  0.276  0.877
 
band    12 # energy   -6.80236972 # occ.  2.00000000
 
ion      s     py     pz     px    dxy    dyz    dz2    dxz  x2-y2    tot
    1  0.000  0.000  0.000  0.001  0.003  0.000  0.000  0.005  0.002  0.011
    2  0.001  0.000  0.000  0.001  0.008  0.001  0.000  0.009  0.000  0.020
    3  0.004  0.001  0.000  0.000  0.000  0.002  0.000  0.000  0.000  0.007
    4  0.002  0.001  0.000  0.000  0.008  0.052  0.002  0.009  0.038  0.113
    5  0.008  0.000  0.000  0.000  0.002  0.004  0.000  0.000  0.006  0.020
    6  0.005  0.000  0.000  0.000  0.000  0.007  0.000  0.000  0.009  0.022
    7  0.000  0.000  0.000  0.000  0.013  0.000  0.000  0.027  0.000  0.041
    8  0.000  0.000  0.001  0.000  0.124  0.002  0.000  0.291  0.001  0.419
    9  0.004  0.000  0.000  0.001  0.009  0.002  0.000  0.008  0.000  0.023
   10  0.000  0.000  0.000  0.001  0.004  0.001  0.000  0.005  0.004  0.015
   11  0.005  0.000  0.000  0.000  0.001  0.001  0.000  0.000  0.001  0.009
   12  0.002  0.000  0.000  0.000  0.021  0.070  0.004  0.002  0.055  0.153
   13  0.000  0.000  0.000  0.000  0.000  0.001  0.000  0.003  0.000  0.005
   14  0.000  0.000  0.000  0.000  0.000  0.000  0.000  0.002  0.000  0.003
   15  0.000  0.000  0.000  0.000  0.000  0.002  0.000  0.000  0.000  0.002
   16  0.000  0.000  0.000  0.000  0.000  0.000  0.000  0.001  0.000  0.002
   17  0.000  0.000  0.000  0.000  0.000  0.000  0.000  0.000  0.000  0.001
   18  0.000  0.000  0.001  0.000  0.000  0.000  0.000  0.000  0.000  0.001
tot    0.031  0.004  0.003  0.004  0.193  0.146  0.007  0.362  0.117  0.868
 
band    13 # energy   -6.64242872 # occ.  2.00000000
 
ion      s     py     pz     px    dxy    dyz    dz2    dxz  x2-y2    tot
    1  0.016  0.000  0.000  0.000  0.001  0.001  0.007  0.000  0.009  0.033
    2  0.000  0.000  0.001  0.000  0.000  0.000  0.003  0.000  0.003  0.008
    3  0.007  0.000  0.000  0.000  0.009  0.000  0.005  0.001  0.001  0.024
    4  0.004  0.000  0.000  0.000  0.092  0.000  0.065  0.012  0.003  0.177
    5  0.007  0.000  0.000  0.000  0.003  0.000  0.004  0.004  0.000  0.019
    6  0.004  0.000  0.000  0.000  0.003  0.000  0.004  0.003  0.000  0.015
    7  0.000  0.000  0.000  0.000  0.000  0.002  0.022  0.000  0.000  0.024
    8  0.021  0.000  0.000  0.001  0.001  0.002  0.000  0.001  0.011  0.037
    9  0.005  0.000  0.001  0.000  0.001  0.001  0.001  0.000  0.012  0.020
   10  0.022  0.000  0.001  0.000  0.004  0.001  0.004  0.000  0.015  0.047
   11  0.002  0.000  0.000  0.000  0.027  0.000  0.002  0.003  0.000  0.034
   12  0.000  0.000  0.000  0.000  0.249  0.002  0.074  0.023  0.000  0.348
   13  0.002  0.000  0.000  0.000  0.003  0.000  0.000  0.002  0.000  0.007
   14  0.001  0.000  0.001  0.000  0.001  0.003  0.004  0.000  0.002  0.012
   15  0.001  0.000  0.000  0.000  0.001  0.000  0.000  0.003  0.000  0.006
   16  0.000  0.000  0.000  0.000  0.005  0.007  0.001  0.013  0.013  0.039
   17  0.000  0.000  0.000  0.000  0.000  0.000  0.000  0.000  0.000  0.001
   18  0.000  0.002  0.000  0.002  0.000  0.000  0.000  0.000  0.000  0.004
tot    0.093  0.003  0.005  0.005  0.400  0.019  0.197  0.064  0.068  0.855
 
band    14 # energy   -6.54443303 # occ.  2.00000000
 
ion      s     py     pz     px    dxy    dyz    dz2    dxz  x2-y2    tot
    1  0.012  0.000  0.000  0.000  0.012  0.000  0.005  0.001  0.000  0.030
    2  0.000  0.000  0.000  0.000  0.003  0.001  0.000  0.001  0.014  0.018
    3  0.002  0.000  0.000  0.000  0.008  0.000  0.000  0.001  0.004  0.015
    4  0.000  0.000  0.000  0.000  0.092  0.012  0.017  0.011  0.097  0.229
    5  0.003  0.000  0.001  0.000  0.000  0.000  0.001  0.000  0.001  0.007
    6  0.000  0.000  0.001  0.000  0.000  0.000  0.003  0.000  0.000  0.005
    7  0.000  0.001  0.000  0.000  0.000  0.000  0.003  0.000  0.001  0.005
    8  0.004  0.000  0.002  0.000  0.004  0.004  0.004  0.004  0.003  0.025
    9  0.000  0.000  0.000  0.000  0.010  0.000  0.001  0.001  0.016  0.028
   10  0.010  0.000  0.000  0.000  0.018  0.001  0.002  0.001  0.001  0.033
   11  0.011  0.000  0.000  0.000  0.004  0.000  0.002  0.001  0.010  0.029
   12  0.000  0.000  0.001  0.000  0.041  0.010  0.008  0.011  0.232  0.303
   13  0.004  0.000  0.001  0.001  0.008  0.000  0.000  0.002  0.000  0.017
   14  0.005  0.001  0.001  0.001  0.011  0.001  0.001  0.004  0.001  0.025
   15  0.001  0.001  0.000  0.000  0.000  0.000  0.001  0.001  0.002  0.007
   16  0.004  0.000  0.000  0.000  0.001  0.002  0.050  0.007  0.008  0.072
   17  0.003  0.000  0.008  0.000  0.000  0.000  0.000  0.000  0.000  0.011
   18  0.000  0.001  0.007  0.001  0.000  0.000  0.000  0.000  0.000  0.009
tot    0.059  0.006  0.023  0.004  0.211  0.031  0.097  0.046  0.391  0.870
 
band    15 # energy   -6.51159564 # occ.  2.00000000
 
ion      s     py     pz     px    dxy    dyz    dz2    dxz  x2-y2    tot
    1  0.004  0.000  0.000  0.000  0.000  0.000  0.001  0.001  0.020  0.026
    2  0.012  0.000  0.000  0.000  0.007  0.000  0.001  0.001  0.004  0.026
    3  0.003  0.000  0.000  0.000  0.019  0.000  0.000  0.000  0.003  0.025
    4  0.000  0.000  0.000  0.000  0.200  0.008  0.000  0.000  0.044  0.253
    5  0.001  0.000  0.000  0.001  0.000  0.000  0.000  0.000  0.001  0.004
    6  0.002  0.000  0.000  0.001  0.001  0.001  0.000  0.000  0.000  0.006
    7  0.001  0.000  0.002  0.000  0.002  0.000  0.000  0.003  0.000  0.007
    8  0.000  0.001  0.000  0.000  0.014  0.006  0.001  0.005  0.005  0.032
    9  0.011  0.000  0.000  0.000  0.004  0.002  0.005  0.002  0.009  0.033
   10  0.004  0.000  0.000  0.000  0.000  0.000  0.000  0.001  0.011  0.017
   11  0.000  0.000  0.000  0.000  0.020  0.000  0.000  0.001  0.000  0.021
   12  0.000  0.000  0.001  0.000  0.196  0.014  0.044  0.004  0.005  0.263
   13  0.003  0.001  0.000  0.000  0.012  0.001  0.006  0.007  0.000  0.030
   14  0.004  0.000  0.001  0.000  0.009  0.002  0.000  0.007  0.000  0.023
   15  0.000  0.000  0.000  0.001  0.000  0.002  0.000  0.003  0.001  0.008
   16  0.005  0.000  0.000  0.000  0.002  0.003  0.029  0.019  0.022  0.081
   17  0.002  0.001  0.006  0.000  0.000  0.000  0.000  0.000  0.000  0.008
   18  0.000  0.002  0.005  0.001  0.000  0.000  0.000  0.000  0.000  0.009
tot    0.052  0.006  0.016  0.006  0.487  0.039  0.087  0.053  0.126  0.871
 
band    16 # energy   -6.45511196 # occ.  2.00000000
 
ion      s     py     pz     px    dxy    dyz    dz2    dxz  x2-y2    tot
    1  0.011  0.000  0.000  0.000  0.015  0.000  0.003  0.000  0.000  0.029
    2  0.000  0.000  0.000  0.000  0.005  0.001  0.001  0.000  0.018  0.025
    3  0.005  0.000  0.000  0.000  0.007  0.000  0.002  0.003  0.008  0.025
    4  0.001  0.000  0.000  0.000  0.077  0.004  0.001  0.024  0.169  0.276
    5  0.001  0.000  0.000  0.000  0.000  0.001  0.001  0.007  0.001  0.011
    6  0.000  0.000  0.000  0.000  0.000  0.000  0.003  0.007  0.001  0.013
    7  0.001  0.000  0.000  0.000  0.000  0.010  0.002  0.001  0.006  0.021
    8  0.001  0.000  0.001  0.001  0.000  0.009  0.004  0.000  0.016  0.032
    9  0.000  0.000  0.000  0.000  0.002  0.007  0.000  0.000  0.002  0.013
   10  0.001  0.000  0.000  0.000  0.002  0.003  0.000  0.000  0.001  0.008
   11  0.002  0.000  0.000  0.000  0.000  0.000  0.001  0.019  0.003  0.024
   12  0.000  0.000  0.000  0.000  0.000  0.006  0.000  0.181  0.051  0.238
   13  0.005  0.000  0.001  0.000  0.001  0.000  0.000  0.002  0.005  0.014
   14  0.005  0.001  0.001  0.000  0.002  0.002  0.000  0.000  0.007  0.018
   15  0.000  0.000  0.000  0.000  0.011  0.001  0.000  0.001  0.000  0.013
   16  0.000  0.000  0.000  0.000  0.079  0.001  0.001  0.007  0.000  0.088
   17  0.000  0.000  0.000  0.005  0.000  0.000  0.000  0.000  0.000  0.005
   18  0.000  0.000  0.000  0.022  0.000  0.000  0.000  0.000  0.000  0.022
tot    0.032  0.001  0.004  0.029  0.203  0.045  0.018  0.252  0.288  0.872
 
band    17 # energy   -6.37885910 # occ.  2.00000000
 
ion      s     py     pz     px    dxy    dyz    dz2    dxz  x2-y2    tot
    1  0.005  0.000  0.000  0.000  0.001  0.000  0.002  0.000  0.002  0.010
    2  0.000  0.000  0.000  0.000  0.000  0.000  0.002  0.000  0.000  0.003
    3  0.001  0.000  0.000  0.000  0.002  0.000  0.005  0.001  0.001  0.010
    4  0.007  0.000  0.000  0.000  0.015  0.004  0.001  0.039  0.000  0.066
    5  0.001  0.000  0.000  0.000  0.001  0.000  0.012  0.000  0.001  0.016
    6  0.001  0.000  0.000  0.000  0.000  0.001  0.000  0.001  0.001  0.005
    7  0.002  0.000  0.000  0.000  0.001  0.000  0.000  0.001  0.000  0.005
    8  0.003  0.000  0.002  0.000  0.029  0.009  0.005  0.049  0.000  0.099
    9  0.001  0.000  0.001  0.000  0.005  0.005  0.000  0.001  0.004  0.017
   10  0.000  0.000  0.001  0.000  0.004  0.000  0.000  0.001  0.007  0.013
   11  0.005  0.000  0.000  0.000  0.000  0.000  0.006  0.002  0.011  0.026
   12  0.000  0.000  0.004  0.000  0.002  0.051  0.042  0.048  0.141  0.289
   13  0.002  0.000  0.000  0.000  0.017  0.001  0.008  0.006  0.002  0.037
   14  0.014  0.001  0.001  0.000  0.033  0.000  0.014  0.014  0.003  0.078
   15  0.000  0.000  0.000  0.000  0.004  0.005  0.001  0.000  0.001  0.013
   16  0.026  0.000  0.002  0.000  0.032  0.017  0.005  0.002  0.060  0.146
   17  0.003  0.001  0.008  0.001  0.000  0.000  0.000  0.000  0.000  0.013
   18  0.000  0.002  0.008  0.007  0.000  0.000  0.000  0.000  0.000  0.017
tot    0.071  0.005  0.028  0.011  0.148  0.095  0.104  0.168  0.234  0.864
 
band    18 # energy   -6.26039555 # occ.  2.00000000
 
ion      s     py     pz     px    dxy    dyz    dz2    dxz  x2-y2    tot
    1  0.000  0.000  0.000  0.000  0.005  0.005  0.000  0.003  0.010  0.023
    2  0.002  0.000  0.001  0.000  0.010  0.004  0.011  0.003  0.001  0.031
    3  0.002  0.000  0.000  0.000  0.003  0.000  0.006  0.002  0.006  0.020
    4  0.000  0.001  0.000  0.000  0.031  0.083  0.002  0.007  0.141  0.266
    5  0.000  0.000  0.000  0.000  0.004  0.009  0.002  0.001  0.000  0.018
    6  0.000  0.000  0.001  0.000  0.005  0.004  0.014  0.001  0.000  0.025
    7  0.000  0.000  0.001  0.000  0.000  0.000  0.006  0.004  0.000  0.013
    8  0.002  0.000  0.000  0.000  0.001  0.081  0.001  0.038  0.037  0.160
    9  0.000  0.000  0.000  0.000  0.002  0.008  0.012  0.000  0.001  0.023
   10  0.000  0.000  0.000  0.000  0.000  0.002  0.000  0.000  0.000  0.003
   11  0.001  0.000  0.000  0.000  0.000  0.003  0.000  0.001  0.001  0.005
   12  0.004  0.000  0.001  0.000  0.007  0.028  0.000  0.001  0.000  0.042
   13  0.011  0.000  0.000  0.000  0.014  0.002  0.009  0.002  0.008  0.047
   14  0.000  0.000  0.000  0.000  0.002  0.001  0.000  0.001  0.007  0.012
   15  0.000  0.000  0.000  0.000  0.014  0.003  0.001  0.000  0.001  0.018
   16  0.002  0.000  0.000  0.000  0.102  0.006  0.046  0.000  0.012  0.169
   17  0.001  0.000  0.002  0.002  0.000  0.000  0.000  0.000  0.000  0.005
   18  0.000  0.002  0.002  0.010  0.000  0.000  0.000  0.000  0.000  0.015
tot    0.024  0.004  0.008  0.014  0.201  0.239  0.113  0.064  0.226  0.894
 
band    19 # energy   -6.21552204 # occ.  2.00000000
 
ion      s     py     pz     px    dxy    dyz    dz2    dxz  x2-y2    tot
    1  0.000  0.000  0.000  0.000  0.000  0.000  0.001  0.000  0.000  0.002
    2  0.002  0.000  0.000  0.000  0.000  0.008  0.005  0.001  0.002  0.018
    3  0.003  0.000  0.000  0.000  0.001  0.000  0.002  0.009  0.000  0.016
    4  0.003  0.000  0.000  0.001  0.018  0.016  0.006  0.083  0.003  0.130
    5  0.001  0.000  0.000  0.000  0.009  0.004  0.008  0.001  0.000  0.024
    6  0.000  0.000  0.000  0.000  0.006  0.003  0.001  0.003  0.001  0.014
    7  0.000  0.000  0.002  0.000  0.002  0.006  0.000  0.001  0.000  0.012
    8  0.012  0.000  0.000  0.001  0.016  0.002  0.010  0.000  0.028  0.071
    9  0.000  0.000  0.002  0.000  0.000  0.012  0.000  0.002  0.000  0.016
   10  0.001  0.000  0.000  0.000  0.000  0.010  0.000  0.002  0.000  0.014
   11  0.000  0.000  0.000  0.000  0.000  0.003  0.001  0.000  0.000  0.005
   12  0.000  0.000  0.001  0.001  0.003  0.183  0.000  0.001  0.000  0.189
   13  0.006  0.000  0.000  0.000  0.003  0.000  0.007  0.000  0.038  0.055
   14  0.003  0.000  0.000  0.000  0.001  0.001  0.000  0.000  0.000  0.007
   15  0.007  0.001  0.000  0.000  0.019  0.000  0.005  0.000  0.016  0.048
   16  0.014  0.000  0.001  0.000  0.148  0.012  0.000  0.002  0.035  0.213
   17  0.001  0.001  0.002  0.002  0.000  0.000  0.000  0.000  0.000  0.006