<?xml version="1.0" encoding="ISO-8859-1"?>
<modeling>
 <generator>
  <i name="program" type="string">vasp </i>
  <i name="version" type="string">6.5.1  </i>
  <i name="subversion" type="string">10Mar25 (build Mar 14 2026 15:48:08) complex                          parallel </i>
  <i name="platform" type="string">LinuxNV </i>
  <i name="date" type="string">2026 03 23 </i>
  <i name="time" type="string">15:40:37 </i>
 </generator>
 <incar>
  <i type="string" name="SYSTEM">Cu-Ag alloy CO adsorption (RPBE, matches CatHub)</i>
  <i type="string" name="PREC">Normal</i>
  <i type="string" name="ALGO">Normal</i>
  <i type="int" name="ISPIN">     1</i>
  <i type="int" name="NELM">   200</i>
  <i type="int" name="IBRION">     2</i>
  <i name="EDIFF">      0.00000100</i>
  <i name="EDIFFG">     -0.03000000</i>
  <i type="int" name="NSW">   200</i>
  <i type="int" name="ISIF">     2</i>
  <i name="ENCUT">    450.00000000</i>
  <i type="string" name="LREAL">Auto</i>
  <i type="int" name="ISMEAR">     0</i>
  <i name="SIGMA">      0.10000000</i>
  <i type="logical" name="LWAVE"> F  </i>
  <i type="logical" name="LCHARG"> F  </i>
  <i type="int" name="LORBIT">    11</i>
  <i type="string" name="GGA">RP</i>
 </incar>
 <primitive_cell>
  <structure name="primitive_cell" >
   <crystal>
    <varray name="basis" >
     <v>       5.27855212       0.00000000       0.00000000 </v>
     <v>       2.63927606       4.57136023       0.00000000 </v>
     <v>       0.00000000       0.00000000      30.46487964 </v>
    </varray>
    <i name="volume">    735.12251919 </i>
    <varray name="rec_basis" >
     <v>       0.18944589      -0.10937664       0.00000000 </v>
     <v>       0.00000000       0.21875327       0.00000000 </v>
     <v>       0.00000000       0.00000000       0.03282468 </v>
    </varray>
   </crystal>
   <varray name="positions" >
    <v>       0.00000000       0.00000000       0.39389619 </v>
    <v>       0.50000000       0.00000000       0.39389619 </v>
    <v>       1.00000000       0.50000000       0.39389619 </v>
    <v>       0.50000000       0.50000000       0.39389619 </v>
    <v>       0.16666667       0.16666667       0.46463206 </v>
    <v>       0.66666667       0.16666667       0.46463206 </v>
    <v>       0.16666667       0.66666667       0.46463206 </v>
    <v>       0.66666667       0.66666667       0.46463206 </v>
    <v>       0.83333333       0.33333333       0.53536794 </v>
    <v>       0.33333333       0.33333333       0.53536794 </v>
    <v>       0.83333333       0.83333333       0.53536794 </v>
    <v>       0.33333333       0.83333333       0.53536794 </v>
    <v>       0.00000000       0.00000000       0.60610381 </v>
    <v>       0.50000000       0.00000000       0.60610381 </v>
    <v>       1.00000000       0.50000000       0.60610381 </v>
    <v>       0.50000000       0.50000000       0.60610381 </v>
    <v>       0.16666667       0.16666667       0.66518824 </v>
    <v>       0.16666667       0.16666667       0.70228013 </v>
   </varray>
  </structure>
  <varray name="primitive_index" >
   <v type="int" >        1 </v>
   <v type="int" >        2 </v>
   <v type="int" >        3 </v>
   <v type="int" >        4 </v>
   <v type="int" >        5 </v>
   <v type="int" >        6 </v>
   <v type="int" >        7 </v>
   <v type="int" >        8 </v>
   <v type="int" >        9 </v>
   <v type="int" >       10 </v>
   <v type="int" >       11 </v>
   <v type="int" >       12 </v>
   <v type="int" >       13 </v>
   <v type="int" >       14 </v>
   <v type="int" >       15 </v>
   <v type="int" >       16 </v>
   <v type="int" >       17 </v>
   <v type="int" >       18 </v>
  </varray>
 </primitive_cell>
 <kpoints>
  <generation param="Gamma">
   <v type="int" name="divisions">       4        4        1 </v>
   <v name="usershift">      0.00000000       0.00000000       0.00000000 </v>
   <v name="genvec1">      0.25000000      -0.00000000       0.00000000 </v>
   <v name="genvec2">      0.00000000       0.25000000       0.00000000 </v>
   <v name="genvec3">      0.00000000       0.00000000       1.00000000 </v>
   <v name="shift">      0.00000000       0.00000000       0.00000000 </v>
  </generation>
  <varray name="kpointlist" >
   <v>       0.00000000       0.00000000       0.00000000 </v>
   <v>       0.25000000       0.00000000       0.00000000 </v>
   <v>       0.25000000       0.25000000       0.00000000 </v>
   <v>       0.00000000       0.25000000       0.00000000 </v>
   <v>       0.50000000       0.00000000       0.00000000 </v>
   <v>       0.50000000       0.50000000       0.00000000 </v>
   <v>       0.00000000       0.50000000       0.00000000 </v>
   <v>       0.50000000       0.25000000       0.00000000 </v>
   <v>       0.25000000       0.50000000       0.00000000 </v>
   <v>      -0.25000000       0.25000000       0.00000000 </v>
  </varray>
  <varray name="weights" >
   <v>       0.06250000 </v>
   <v>       0.12500000 </v>
   <v>       0.12500000 </v>
   <v>       0.12500000 </v>
   <v>       0.06250000 </v>
   <v>       0.06250000 </v>
   <v>       0.06250000 </v>
   <v>       0.12500000 </v>
   <v>       0.12500000 </v>
   <v>       0.12500000 </v>
  </varray>
 </kpoints>
 <parameters>
  <separator name="general" >
   <i type="string" name="SYSTEM">Cu-Ag alloy CO adsorption (RPBE, matches</i>
   <i type="logical" name="LCOMPAT"> F  </i>
  </separator>
  <separator name="electronic" >
   <i type="string" name="PREC">normal</i>
   <i name="ENMAX">    450.00000000</i>
   <i name="ENAUG">    644.87300000</i>
   <i name="EDIFF">      0.00000100</i>
   <i type="int" name="IALGO">    38</i>
   <i type="int" name="IWAVPR">    11</i>
   <i type="int" name="NBANDS">   111</i>
   <i type="int" name="NBANDSLOW">    -1</i>
   <i type="int" name="NBANDSHIGH">    -1</i>
   <i name="NELECT">    186.00000000</i>
   <i type="int" name="TURBO">     0</i>
   <i type="int" name="IRESTART">     0</i>
   <i type="int" name="NREBOOT">     0</i>
   <i type="int" name="NMIN">     0</i>
   <i name="EREF">      0.00000000</i>
   <separator name="electronic smearing" >
    <i type="int" name="ISMEAR">     0</i>
    <i name="SIGMA">      0.10000000</i>
    <i name="KSPACING">      0.50000000</i>
    <i type="logical" name="KGAMMA"> T  </i>
    <i type="logical" name="KBLOWUP"> T  </i>
   </separator>
   <separator name="electronic projectors" >
    <i type="logical" name="LREAL"> T  </i>
    <v name="ROPT">     -0.00050000     -0.00050000     -0.00050000     -0.00050000     -0.00050000     -0.00050000     -0.00050000     -0.00050000     -0.00050000     -0.00050000</v>
    <i type="int" name="LMAXPAW">  -100</i>
    <i type="int" name="LMAXMIX">     2</i>
    <i type="logical" name="NLSPLINE"> F  </i>
   </separator>
   <separator name="electronic startup" >
    <i type="int" name="ISTART">     0</i>
    <i type="int" name="ICHARG">     2</i>
    <i type="int" name="INIWAV">     1</i>
   </separator>
   <separator name="electronic spin" >
    <i type="int" name="ISPIN">     1</i>
    <i type="logical" name="LNONCOLLINEAR"> F  </i>
    <v name="MAGMOM">      1.00000000      1.00000000      1.00000000      1.00000000      1.00000000      1.00000000      1.00000000      1.00000000      1.00000000      1.00000000      1.00000000      1.00000000      1.00000000      1.00000000      1.00000000      1.00000000      1.00000000      1.00000000</v>
    <i name="NUPDOWN">     -1.00000000</i>
    <i type="logical" name="LSORBIT"> F  </i>
    <v name="SAXIS">      0.00000000      0.00000000      1.00000000</v>
    <i type="logical" name="LSPIRAL"> F  </i>
    <v name="QSPIRAL">      0.00000000      0.00000000      0.00000000</v>
    <i type="logical" name="LZEROZ"> F  </i>
   </separator>
   <separator name="electronic exchange-correlation" >
    <i type="logical" name="LASPH"> F  </i>
   </separator>
   <separator name="electronic convergence" >
    <i type="int" name="NELM">   200</i>
    <i type="int" name="NELMDL">    -5</i>
    <i type="int" name="NELMIN">     2</i>
    <i name="ENINI">    450.00000000</i>
    <separator name="electronic convergence detail" >
     <i type="logical" name="LDIAG"> T  </i>
     <i type="logical" name="LSUBROT"> F  </i>
     <i type="logical" name="LROBUST"> F  </i>
     <i type="int" name="ISEARCH">     0</i>
     <i name="WEIMIN">      0.00100000</i>
     <i name="EBREAK">      0.00000000</i>
     <i name="DEPER">      0.30000000</i>
     <i type="int" name="NRMM">     4</i>
     <i name="TIME">      0.40000000</i>
    </separator>
   </separator>
   <separator name="electronic mixer" >
    <i name="AMIX">      0.40000000</i>
    <i name="BMIX">      1.00000000</i>
    <i name="AMIN">      0.10000000</i>
    <i name="AMIX_MAG">      1.60000000</i>
    <i name="BMIX_MAG">      1.00000000</i>
    <separator name="electronic mixer details" >
     <i type="int" name="IMIX">     4</i>
     <i type="logical" name="MIXFIRST"> F  </i>
     <i type="int" name="MAXMIX">   -45</i>
     <i name="WC">    100.00000000</i>
     <i type="int" name="INIMIX">     1</i>
     <i type="int" name="MIXPRE">     1</i>
     <i type="int" name="MREMOVE">     5</i>
    </separator>
   </separator>
   <separator name="electronic dipolcorrection" >
    <i type="logical" name="LDIPOL"> F  </i>
    <i type="logical" name="LMONO"> F  </i>
    <i type="int" name="IDIPOL">     0</i>
    <i name="EPSILON">      1.00000000</i>
    <v name="DIPOL">   -100.00000000   -100.00000000   -100.00000000</v>
    <i name="EFIELD">      0.00000000</i>
    <i type="logical" name="LVACPOTAV"> F  </i>
   </separator>
  </separator>
  <separator name="grids" >
   <i type="int" name="NGX">    28</i>
   <i type="int" name="NGY">    28</i>
   <i type="int" name="NGZ">   160</i>
   <i type="int" name="NGXF">    56</i>
   <i type="int" name="NGYF">    56</i>
   <i type="int" name="NGZF">   320</i>
   <i type="logical" name="ADDGRID"> F  </i>
  </separator>
  <separator name="ionic" >
   <i type="int" name="NSW">   200</i>
   <i type="int" name="IBRION">     2</i>
   <i type="int" name="MDALGO">     0</i>
   <i type="int" name="ISIF">     2</i>
   <i name="PSTRESS">      0.00000000</i>
   <i name="EDIFFG">     -0.03000000</i>
   <i type="int" name="NFREE">     1</i>
   <i name="POTIM">      0.50000000</i>
   <i name="SMASS">     -3.00000000</i>
   <i name="SCALEE">      1.00000000</i>
  </separator>
  <separator name="ionic md" >
   <i name="TEBEG">      0.00010000</i>
   <i name="TEEND">      0.00010000</i>
   <i type="int" name="NBLOCK">     1</i>
   <i type="int" name="KBLOCK">   200</i>
   <i type="int" name="NPACO">   256</i>
   <i name="APACO">     10.00000000</i>
  </separator>
  <separator name="symmetry" >
   <i type="int" name="ISYM">     2</i>
   <i name="SYMPREC">      0.00001000</i>
  </separator>
  <separator name="dos" >
   <i type="int" name="LORBIT">    11</i>
   <v name="RWIGS">     -1.00000000     -1.00000000     -1.00000000     -1.00000000     -1.00000000     -1.00000000     -1.00000000     -1.00000000     -1.00000000     -1.00000000</v>
   <i type="int" name="NEDOS">   301</i>
   <i name="EMIN">     10.00000000</i>
   <i name="EMAX">    -10.00000000</i>
   <i name="EFERMI">      0.00000000</i>
  </separator>
  <separator name="writing" >
   <i type="int" name="NWRITE">     2</i>
   <i type="logical" name="LWAVE"> F  </i>
   <i type="logical" name="LDOWNSAMPLE"> F  </i>
   <i type="logical" name="LCHARG"> F  </i>
   <i type="logical" name="LPARD"> F  </i>
   <i type="logical" name="LVTOT"> F  </i>
   <i type="logical" name="LVHAR"> F  </i>
   <i type="logical" name="LELF"> F  </i>
   <i type="logical" name="LOPTICS"> F  </i>
   <v name="STM">      0.00000000      0.00000000      0.00000000      0.00000000      0.00000000      0.00000000      0.00000000</v>
  </separator>
  <separator name="performance" >
   <i type="int" name="NPAR">     1</i>
   <i type="int" name="NSIM">     4</i>
   <i type="int" name="NBLK">    -1</i>
   <i type="logical" name="LPLANE"> T  </i>
   <i type="logical" name="LSCALAPACK"> T  </i>
   <i type="logical" name="LSCAAWARE"> F  </i>
   <i type="logical" name="LSCALU"> F  </i>
   <i type="logical" name="LASYNC"> F  </i>
   <i type="logical" name="LORBITALREAL"> F  </i>
  </separator>
  <separator name="miscellaneous" >
   <i type="int" name="IDIOT">     3</i>
   <i type="int" name="PHON_NSTRUCT">    -1</i>
   <i type="logical" name="LMUSIC"> F  </i>
   <v name="POMASS">     63.54600000    107.86800000     63.54600000    107.86800000     63.54600000    107.86800000     63.54600000    107.86800000     12.01100000     16.00000000</v>
   <v name="DARWINR">      0.00000000      0.00000000      0.00000000      0.00000000      0.00000000      0.00000000      0.00000000      0.00000000      0.00000000      0.00000000</v>
   <v name="DARWINV">      1.00000000      1.00000000      1.00000000      1.00000000      1.00000000      1.00000000      1.00000000      1.00000000      1.00000000      1.00000000</v>
   <i type="logical" name="LCORR"> T  </i>
  </separator>
  <i type="logical" name="GGA_COMPAT"> T  </i>
  <i type="logical" name="LBERRY"> F  </i>
  <i type="int" name="ICORELEVEL">     0</i>
  <i type="logical" name="LDAU"> F  </i>
  <i type="int" name="I_CONSTRAINED_M">     0</i>
  <separator name="electronic exchange-correlation" >
   <i type="string" name="GGA    ">RP</i>
   <i type="string" name="XC_C">1</i>
   <i type="int" name="VOSKOWN">     0</i>
   <i type="logical" name="LHFCALC"> F  </i>
   <i type="string" name="PRECFOCK"></i>
   <i type="logical" name="LSYMGRAD"> F  </i>
   <i type="logical" name="LHFONE"> F  </i>
   <i type="logical" name="LRHFCALC"> F  </i>
   <i type="logical" name="LTHOMAS"> F  </i>
   <i type="logical" name="LMODELHF"> F  </i>
   <i type="logical" name="LFOCKACE"> F  </i>
   <i name="ENCUT4O">     -1.00000000</i>
   <i type="int" name="EXXOEP">     0</i>
   <i type="int" name="FOURORBIT">     0</i>
   <i name="AEXX">      0.00000000</i>
   <i name="HFALPHA">      0.00000000</i>
   <i name="MCALPHA">      0.00000000</i>
   <i name="ALDAX">      1.00000000</i>
   <i name="AGGAX">      1.00000000</i>
   <i name="AMGGAX">      1.00000000</i>
   <i name="ALDAC">      1.00000000</i>
   <i name="AGGAC">      1.00000000</i>
   <i name="AMGGAC">      1.00000000</i>
   <i type="int" name="NKREDX">     1</i>
   <i type="int" name="NKREDY">     1</i>
   <i type="int" name="NKREDZ">     1</i>
   <i type="logical" name="SHIFTRED"> F  </i>
   <i type="logical" name="ODDONLY"> F  </i>
   <i type="logical" name="EVENONLY"> F  </i>
   <i type="int" name="LMAXFOCK">     0</i>
   <i type="int" name="NMAXFOCKAE">     0</i>
   <i type="logical" name="LFOCKAEDFT"> F  </i>
   <i name="HFSCREEN">      0.00000000</i>
   <i name="HFSCREENC">      0.00000000</i>
   <i type="int" name="NBANDSGWLOW">     0</i>
  </separator>
  <separator name="vdW DFT" >
   <i type="logical" name="LUSE_VDW"> F  </i>
   <i type="int" name="IVDW_NL">    -1</i>
   <i type="logical" name="LSPIN_VDW"> F  </i>
   <i name="ZAB_VDW">     -0.84910000</i>
   <i name="GAMMA_VDW">      1.39626340</i>
   <i name="ALPHA_VDW">      0.00000000</i>
   <i name="PARAM1">      0.12340000</i>
   <i name="PARAM2">      1.00000000</i>
   <i name="BPARAM">      6.30000000</i>
   <i name="CPARAM">      0.00930000</i>
  </separator>
  <separator name="model GW" >
   <i type="int" name="MODEL_GW">     0</i>
   <i name="MODEL_EPS0">     24.50408397</i>
   <i name="MODEL_ALPHA">      1.00000000</i>
  </separator>
  <separator name="linear response parameters" >
   <i type="logical" name="LEPSILON"> F  </i>
   <i type="logical" name="LRPA"> F  </i>
   <i type="logical" name="LNABLA"> F  </i>
   <i type="logical" name="LVEL"> F  </i>
   <i name="CSHIFT">      0.10000000</i>
   <i name="OMEGAMAX">     -1.00000000</i>
   <i name="DEG_THRESHOLD">      0.00200000</i>
   <i name="RTIME">     -0.10000000</i>
   <i name="WPLASMAI">      0.00000000</i>
   <v name="DFIELD">      0.00000000      0.00000000      0.00000000</v>
   <v name="WPLASMA">      0.00000000      0.00000000      0.00000000      0.00000000      0.00000000      0.00000000      0.00000000      0.00000000      0.00000000</v>
  </separator>
  <separator name="orbital magnetization" >
   <i type="logical" name="NUCIND"> F  </i>
   <v name="MAGPOS">      0.00000000      0.00000000      0.00000000</v>
   <i type="logical" name="LNICSALL"> T  </i>
   <i type="logical" name="ORBITALMAG"> F  </i>
   <i type="logical" name="LMAGBLOCH"> F  </i>
   <i type="logical" name="LCHIMAG"> F  </i>
   <i type="logical" name="LGAUGE"> T  </i>
   <i type="int" name="MAGATOM">     0</i>
   <v name="MAGDIPOL">      0.00000000      0.00000000      0.00000000</v>
   <v name="AVECCONST">      0.00000000      0.00000000      0.00000000</v>
  </separator>
  <separator name="response functions" >
   <i type="logical" name="LALL_IN_ONE"> F  </i>
   <i type="int" name="IALL_IN_ONE">    -1</i>
   <i type="int" name="NBANDS_WAVE">    -1</i>
   <i type="logical" name="LFINITE_TEMPERATURE"> F  </i>
   <i type="logical" name="LADDER"> F  </i>
   <i type="logical" name="LRPAFORCE"> F  </i>
   <i type="logical" name="LFXC"> F  </i>
   <i type="logical" name="LHARTREE"> T  </i>
   <i type="int" name="IBSE">     2</i>
   <v type="int" name="KPOINT">    -1     0     0     0</v>
   <i type="logical" name="LTCTC"> F  </i>
   <i type="logical" name="LTCTE"> F  </i>
   <i type="logical" name="LTETE"> F  </i>
   <i type="logical" name="LTRIPLET"> F  </i>
   <i type="logical" name="LFXCEPS"> F  </i>
   <i type="logical" name="LFXHEG"> F  </i>
   <i type="int" name="NATURALO">     2</i>
   <i type="logical" name="LHOLEGF"> F  </i>
   <i type="logical" name="L2ORDER"> F  </i>
   <i type="logical" name="LDMP1"> F  </i>
   <i type="logical" name="LMP2LT"> F  </i>
   <i type="logical" name="LSMP2LT"> F  </i>
   <i type="logical" name="LGWLF"> F  </i>
   <i name="ENCUTGW">     -1.60000002</i>
   <i name="ENCUTGWSOFT">     -1.60000002</i>
   <i name="ENCUTLF">     -1.00000000</i>
   <i type="logical" name="ESF_SPLINES"> F  </i>
   <i name="ESF_CONV">      0.01000000</i>
   <i type="int" name="ESF_NINTER">    15</i>
   <i type="int" name="LMAXMP2">    -1</i>
   <i name="SCISSOR">      0.00000000</i>
   <i type="int" name="NOMEGA">     0</i>
   <i type="int" name="NOMEGAR">     0</i>
   <i type="int" name="NBANDSGW">    -1</i>
   <i type="int" name="NBANDSO">    -1</i>
   <i type="int" name="NBANDSV">    -1</i>
   <i type="int" name="NELMGW">     1</i>
   <i type="int" name="NELMHF">     1</i>
   <i type="int" name="DIM">     3</i>
   <i type="int" name="IESPILON">     4</i>
   <i type="int" name="ANTIRES">     0</i>
   <i name="OMEGAMAX">    -30.00000000</i>
   <i name="OMEGAMIN">    -30.00000000</i>
   <i name="OMEGATL">   -200.00000000</i>
   <i type="int" name="OMEGAGRID">     0</i>
   <i name="CSHIFT">     -0.10000000</i>
   <i type="logical" name="LSELFENERGY"> F  </i>
   <i type="logical" name="LSPECTRAL"> F  </i>
   <i type="logical" name="LSPECTRALGW"> F  </i>
   <i type="logical" name="LSINGLES"> F  </i>
   <i type="logical" name="LFERMIGW"> F  </i>
   <i type="logical" name="ODDONLYGW"> F  </i>
   <i type="logical" name="EVENONLYGW"> F  </i>
   <i type="int" name="NKREDLFX">     1</i>
   <i type="int" name="NKREDLFY">     1</i>
   <i type="int" name="NKREDLFZ">     1</i>
   <i type="int" name="MAXMEM">  2800</i>
   <i type="int" name="TELESCOPE">     0</i>
   <i type="int" name="NTAUPAR">    -1</i>
   <i type="int" name="NOMEGAPAR">    -1</i>
   <i name="DAMP_NEWTON">      0.80000001</i>
   <i name="LAMBDA">      1.00000000</i>
  </separator>
  <separator name="External order field" >
   <i name="OFIELD_KAPPA">      0.00000000</i>
   <v name="OFIELD_K">      0.00000000      0.00000000      0.00000000</v>
   <i name="OFIELD_Q6_NEAR">      0.00000000</i>
   <i name="OFIELD_Q6_FAR">      0.00000000</i>
   <i name="OFIELD_A">      0.00000000</i>
  </separator>
  <separator name="optional k-points parameters" >
   <i type="int" name="KPOINTS_OPT_MODE">     1</i>
   <i type="logical" name="LKPOINTS_OPT"> F  </i>
  </separator>
 </parameters>
 <atominfo>
  <atoms>      18 </atoms>
  <types>      10 </types>
  <array name="atoms" >
   <dimension dim="1">ion</dimension>
   <field type="string">element</field>
   <field type="int">atomtype</field>
   <set>
    <rc><c>Cu</c><c>   1</c></rc>
    <rc><c>Cu</c><c>   1</c></rc>
    <rc><c>Cu</c><c>   1</c></rc>
    <rc><c>Ag</c><c>   2</c></rc>
    <rc><c>Cu</c><c>   3</c></rc>
    <rc><c>Cu</c><c>   3</c></rc>
    <rc><c>Cu</c><c>   3</c></rc>
    <rc><c>Ag</c><c>   4</c></rc>
    <rc><c>Cu</c><c>   5</c></rc>
    <rc><c>Cu</c><c>   5</c></rc>
    <rc><c>Cu</c><c>   5</c></rc>
    <rc><c>Ag</c><c>   6</c></rc>
    <rc><c>Cu</c><c>   7</c></rc>
    <rc><c>Cu</c><c>   7</c></rc>
    <rc><c>Cu</c><c>   7</c></rc>
    <rc><c>Ag</c><c>   8</c></rc>
    <rc><c>C </c><c>   9</c></rc>
    <rc><c>O </c><c>  10</c></rc>
   </set>
  </array>
  <array name="atomtypes" >
   <dimension dim="1">type</dimension>
   <field type="int">atomspertype</field>
   <field type="string">element</field>
   <field>mass</field>
   <field>valence</field>
   <field type="string">pseudopotential</field>
   <set>
    <rc><c>   3</c><c>Cu</c><c>     63.54600000</c><c>     11.00000000</c><c>  PAW_PBE Cu 22Jun2005                  </c></rc>
    <rc><c>   1</c><c>Ag</c><c>    107.86800000</c><c>     11.00000000</c><c>  PAW_PBE Ag 02Apr2005                  </c></rc>
    <rc><c>   3</c><c>Cu</c><c>     63.54600000</c><c>     11.00000000</c><c>  PAW_PBE Cu 22Jun2005                  </c></rc>
    <rc><c>   1</c><c>Ag</c><c>    107.86800000</c><c>     11.00000000</c><c>  PAW_PBE Ag 02Apr2005                  </c></rc>
    <rc><c>   3</c><c>Cu</c><c>     63.54600000</c><c>     11.00000000</c><c>  PAW_PBE Cu 22Jun2005                  </c></rc>
    <rc><c>   1</c><c>Ag</c><c>    107.86800000</c><c>     11.00000000</c><c>  PAW_PBE Ag 02Apr2005                  </c></rc>
    <rc><c>   3</c><c>Cu</c><c>     63.54600000</c><c>     11.00000000</c><c>  PAW_PBE Cu 22Jun2005                  </c></rc>
    <rc><c>   1</c><c>Ag</c><c>    107.86800000</c><c>     11.00000000</c><c>  PAW_PBE Ag 02Apr2005                  </c></rc>
    <rc><c>   1</c><c>C </c><c>     12.01100000</c><c>      4.00000000</c><c>  PAW_PBE C 08Apr2002                   </c></rc>
    <rc><c>   1</c><c>O </c><c>     16.00000000</c><c>      6.00000000</c><c>  PAW_PBE O 08Apr2002                   </c></rc>
   </set>
  </array>
 </atominfo>
 <structure name="initialpos" >
  <crystal>
   <varray name="basis" >
    <v>       5.27855212       0.00000000       0.00000000 </v>
    <v>       2.63927606       4.57136023       0.00000000 </v>
    <v>       0.00000000       0.00000000      30.46487964 </v>
   </varray>
   <i name="volume">    735.12251919 </i>
   <varray name="rec_basis" >
    <v>       0.18944589      -0.10937664       0.00000000 </v>
    <v>       0.00000000       0.21875327       0.00000000 </v>
    <v>       0.00000000       0.00000000       0.03282468 </v>
   </varray>
  </crystal>
  <varray name="positions" >
   <v>       0.00000000       0.00000000       0.39389619 </v>
   <v>       0.50000000       0.00000000       0.39389619 </v>
   <v>       0.00000000       0.50000000       0.39389619 </v>
   <v>       0.50000000       0.50000000       0.39389619 </v>
   <v>       0.16666667       0.16666667       0.46463206 </v>
   <v>       0.66666667       0.16666667       0.46463206 </v>
   <v>       0.16666667       0.66666667       0.46463206 </v>
   <v>       0.66666667       0.66666667       0.46463206 </v>
   <v>       0.83333333       0.33333333       0.53536794 </v>
   <v>       0.33333333       0.33333333       0.53536794 </v>
   <v>       0.83333333       0.83333333       0.53536794 </v>
   <v>       0.33333333       0.83333333       0.53536794 </v>
   <v>       0.00000000       0.00000000       0.60610381 </v>
   <v>       0.50000000       0.00000000       0.60610381 </v>
   <v>       0.00000000       0.50000000       0.60610381 </v>
   <v>       0.50000000       0.50000000       0.60610381 </v>
   <v>       0.16666667       0.16666667       0.66518824 </v>
   <v>       0.16666667       0.16666667       0.70228013 </v>
  </varray>
  <varray name="selective"  type="logical" >
   <v type="logical" >  F  F  F </v>
   <v type="logical" >  F  F  F </v>
   <v type="logical" >  F  F  F </v>
   <v type="logical" >  F  F  F </v>
   <v type="logical" >  F  F  F </v>
   <v type="logical" >  F  F  F </v>
   <v type="logical" >  F  F  F </v>
   <v type="logical" >  F  F  F </v>
   <v type="logical" >  T  T  T </v>
   <v type="logical" >  T  T  T </v>
   <v type="logical" >  T  T  T </v>
   <v type="logical" >  T  T  T </v>
   <v type="logical" >  T  T  T </v>
   <v type="logical" >  T  T  T </v>
   <v type="logical" >  T  T  T </v>
   <v type="logical" >  T  T  T </v>
   <v type="logical" >  T  T  T </v>
   <v type="logical" >  T  T  T </v>
  </varray>
  <nose>
   <v>      -3.00000000       0.00000000       0.00010000       0.00010000 </v>
  </nose>
 </structure>
 <calculation>
  <scstep>
   <time name="dav">    1.52    1.53</time>
   <time name="total">    1.56    1.57</time>
   <energy>
    <i name="alphaZ">    291.17666724 </i>
    <i name="ewald"> 143122.89036748 </i>
    <i name="hartreedc">-163660.50373476 </i>
    <i name="XCdc">    535.03197805 </i>
    <i name="pawpsdc">  19220.68424199 </i>
    <i name="pawaedc"> -20292.29062999 </i>
    <i name="eentropy">     -0.02803301 </i>
    <i name="bandstr">   1144.89317104 </i>
    <i name="atom">  21405.57257776 </i>
    <i name="e_fr_energy">   1767.42660580 </i>
    <i name="e_wo_entrp">   1767.45463881 </i>
    <i name="e_0_energy">   1767.44062230 </i>
   </energy>
  </scstep>
  <scstep>
   <time name="dav">    1.42    1.42</time>
   <time name="total">    1.42    1.42</time>
   <energy>
    <i name="e_fr_energy">    218.13743197 </i>
    <i name="e_wo_entrp">    218.15349327 </i>
    <i name="e_0_energy">    218.14546262 </i>
   </energy>
  </scstep>
  <scstep>
   <time name="dav">    1.88    1.89</time>
   <time name="total">    1.88    1.89</time>
   <energy>
    <i name="e_fr_energy">    -40.27018938 </i>
    <i name="e_wo_entrp">    -40.21942677 </i>
    <i name="e_0_energy">    -40.24480807 </i>
   </energy>
  </scstep>
  <scstep>
   <time name="dav">    2.06    2.06</time>
   <time name="total">    2.06    2.06</time>
   <energy>
    <i name="e_fr_energy">    -67.45526955 </i>
    <i name="e_wo_entrp">    -67.41254301 </i>
    <i name="e_0_energy">    -67.43390628 </i>
   </energy>
  </scstep>
  <scstep>
   <time name="dav">    1.98    1.98</time>
   <time name="total">    2.12    2.12</time>
   <energy>
    <i name="e_fr_energy">    -68.31564025 </i>
    <i name="e_wo_entrp">    -68.27218685 </i>
    <i name="e_0_energy">    -68.29391355 </i>
   </energy>
  </scstep>
  <scstep>
   <time name="dav">    1.77    1.77</time>
   <time name="total">    1.92    1.93</time>
   <energy>
    <i name="e_fr_energy">    -67.10132782 </i>
    <i name="e_wo_entrp">    -67.06113902 </i>
    <i name="e_0_energy">    -67.08123342 </i>
   </energy>
  </scstep>
  <scstep>
   <time name="dav">    1.68    1.68</time>
   <time name="total">    1.84    1.84</time>
   <energy>
    <i name="e_fr_energy">    -57.76520472 </i>
    <i name="e_wo_entrp">    -57.72088824 </i>
    <i name="e_0_energy">    -57.74304648 </i>
   </energy>
  </scstep>
  <scstep>
   <time name="dav">    1.95    1.96</time>
   <time name="total">    2.11    2.11</time>
   <energy>
    <i name="e_fr_energy">    -59.03048146 </i>
    <i name="e_wo_entrp">    -59.01364673 </i>
    <i name="e_0_energy">    -59.02206410 </i>
   </energy>
  </scstep>
  <scstep>
   <time name="dav">    2.36    2.37</time>
   <time name="total">    2.52    2.53</time>
   <energy>
    <i name="e_fr_energy">    -57.93604443 </i>
    <i name="e_wo_entrp">    -57.89579742 </i>
    <i name="e_0_energy">    -57.91592092 </i>
   </energy>
  </scstep>
  <scstep>
   <time name="dav">    2.26    2.27</time>
   <time name="total">    2.42    2.42</time>
   <energy>
    <i name="e_fr_energy">    -57.96176613 </i>
    <i name="e_wo_entrp">    -57.92208832 </i>
    <i name="e_0_energy">    -57.94192723 </i>
   </energy>
  </scstep>
  <scstep>
   <time name="dav">    1.76    1.77</time>
   <time name="total">    1.92    1.93</time>
   <energy>
    <i name="e_fr_energy">    -57.65147919 </i>
    <i name="e_wo_entrp">    -57.59678306 </i>
    <i name="e_0_energy">    -57.62413112 </i>
   </energy>
  </scstep>
  <scstep>
   <time name="dav">    1.72    1.73</time>
   <time name="total">    1.88    1.88</time>
   <energy>
    <i name="e_fr_energy">    -57.64802874 </i>
    <i name="e_wo_entrp">    -57.59229916 </i>
    <i name="e_0_energy">    -57.62016395 </i>
   </energy>
  </scstep>
  <scstep>
   <time name="dav">    1.67    1.67</time>
   <time name="total">    1.82    1.83</time>
   <energy>
    <i name="e_fr_energy">    -57.65532214 </i>
    <i name="e_wo_entrp">    -57.60163253 </i>
    <i name="e_0_energy">    -57.62847734 </i>
   </energy>
  </scstep>
  <scstep>
   <time name="dav">    1.62    1.62</time>
   <time name="total">    1.78    1.78</time>
   <energy>
    <i name="e_fr_energy">    -57.65460077 </i>
    <i name="e_wo_entrp">    -57.59963920 </i>
    <i name="e_0_energy">    -57.62711998 </i>
   </energy>
  </scstep>
  <scstep>
   <time name="dav">    1.63    1.64</time>
   <time name="total">    1.80    1.80</time>
   <energy>
    <i name="e_fr_energy">    -57.65325936 </i>
    <i name="e_wo_entrp">    -57.59876407 </i>
    <i name="e_0_energy">    -57.62601172 </i>
   </energy>
  </scstep>
  <scstep>
   <time name="dav">    1.79    1.80</time>
   <time name="total">    1.95    1.96</time>
   <energy>
    <i name="e_fr_energy">    -57.65237707 </i>
    <i name="e_wo_entrp">    -57.59727620 </i>
    <i name="e_0_energy">    -57.62482663 </i>
   </energy>
  </scstep>
  <scstep>
   <time name="dav">    1.68    1.68</time>
   <time name="total">    1.83    1.84</time>
   <energy>
    <i name="e_fr_energy">    -57.65219187 </i>
    <i name="e_wo_entrp">    -57.59731221 </i>
    <i name="e_0_energy">    -57.62475204 </i>
   </energy>
  </scstep>
  <scstep>
   <time name="dav">    1.72    1.72</time>
   <time name="total">    1.87    1.87</time>
   <energy>
    <i name="e_fr_energy">    -57.65219659 </i>
    <i name="e_wo_entrp">    -57.59721628 </i>
    <i name="e_0_energy">    -57.62470643 </i>
   </energy>
  </scstep>
  <scstep>
   <time name="dav">    1.90    1.90</time>
   <time name="total">    2.06    2.07</time>
   <energy>
    <i name="e_fr_energy">    -57.65233313 </i>
    <i name="e_wo_entrp">    -57.59739248 </i>
    <i name="e_0_energy">    -57.62486281 </i>
   </energy>
  </scstep>
  <scstep>
   <time name="dav">    1.88    1.88</time>
   <time name="total">    2.04    2.04</time>
   <energy>
    <i name="e_fr_energy">    -57.65243854 </i>
    <i name="e_wo_entrp">    -57.59749440 </i>
    <i name="e_0_energy">    -57.62496647 </i>
   </energy>
  </scstep>
  <scstep>
   <time name="dav">    1.82    1.82</time>
   <time name="total">    1.97    1.98</time>
   <energy>
    <i name="e_fr_energy">    -57.65255424 </i>
    <i name="e_wo_entrp">    -57.59760786 </i>
    <i name="e_0_energy">    -57.62508105 </i>
   </energy>
  </scstep>
  <scstep>
   <time name="dav">    1.80    1.80</time>
   <time name="total">    1.95    1.96</time>
   <energy>
    <i name="e_fr_energy">    -57.65272241 </i>
    <i name="e_wo_entrp">    -57.59775239 </i>
    <i name="e_0_energy">    -57.62523740 </i>
   </energy>
  </scstep>
  <scstep>
   <time name="dav">    1.56    1.57</time>
   <time name="total">    1.72    1.73</time>
   <energy>
    <i name="e_fr_energy">    -57.65278090 </i>
    <i name="e_wo_entrp">    -57.59781176 </i>
    <i name="e_0_energy">    -57.62529633 </i>
   </energy>
  </scstep>
  <scstep>
   <time name="dav">    1.42    1.42</time>
   <time name="total">    1.57    1.58</time>
   <energy>
    <i name="e_fr_energy">    -57.65282638 </i>
    <i name="e_wo_entrp">    -57.59787585 </i>
    <i name="e_0_energy">    -57.62535112 </i>
   </energy>
  </scstep>
  <scstep>
   <time name="dav">    1.31    1.31</time>
   <time name="total">    1.48    1.48</time>
   <energy>
    <i name="e_fr_energy">    -57.65289084 </i>
    <i name="e_wo_entrp">    -57.59792932 </i>
    <i name="e_0_energy">    -57.62541008 </i>
   </energy>
  </scstep>
  <scstep>
   <time name="dav">    1.16    1.16</time>
   <time name="total">    1.32    1.32</time>
   <energy>
    <i name="e_fr_energy">    -57.65290507 </i>
    <i name="e_wo_entrp">    -57.59794797 </i>
    <i name="e_0_energy">    -57.62542652 </i>
   </energy>
  </scstep>
  <scstep>
   <time name="dav">    1.05    1.05</time>
   <time name="total">    1.21    1.21</time>
   <energy>
    <i name="e_fr_energy">    -57.65291867 </i>
    <i name="e_wo_entrp">    -57.59796190 </i>
    <i name="e_0_energy">    -57.62544028 </i>
   </energy>
  </scstep>
  <scstep>
   <time name="dav">    1.07    1.07</time>
   <time name="total">    1.23    1.24</time>
   <energy>
    <i name="e_fr_energy">    -57.65294151 </i>
    <i name="e_wo_entrp">    -57.59798355 </i>
    <i name="e_0_energy">    -57.62546253 </i>
   </energy>
  </scstep>
  <scstep>
   <time name="dav">    1.07    1.08</time>
   <time name="total">    1.24    1.24</time>
   <energy>
    <i name="e_fr_energy">    -57.65295103 </i>
    <i name="e_wo_entrp">    -57.59799307 </i>
    <i name="e_0_energy">    -57.62547205 </i>
   </energy>
  </scstep>
  <scstep>
   <time name="dav">    1.07    1.07</time>
   <time name="total">    1.23    1.23</time>
   <energy>
    <i name="e_fr_energy">    -57.65295667 </i>
    <i name="e_wo_entrp">    -57.59799848 </i>
    <i name="e_0_energy">    -57.62547758 </i>
   </energy>
  </scstep>
  <scstep>
   <time name="dav">    1.05    1.05</time>
   <time name="total">    1.21    1.21</time>
   <energy>
    <i name="e_fr_energy">    -57.65296337 </i>
    <i name="e_wo_entrp">    -57.59800571 </i>
    <i name="e_0_energy">    -57.62548454 </i>
   </energy>
  </scstep>
  <scstep>
   <time name="dav">    1.08    1.08</time>
   <time name="total">    1.24    1.24</time>
   <energy>
    <i name="e_fr_energy">    -57.65296622 </i>
    <i name="e_wo_entrp">    -57.59800897 </i>
    <i name="e_0_energy">    -57.62548759 </i>
   </energy>
  </scstep>
  <scstep>
   <time name="dav">    1.00    1.00</time>
   <time name="total">    1.16    1.17</time>
   <energy>
    <i name="e_fr_energy">    -57.65296803 </i>
    <i name="e_wo_entrp">    -57.59801046 </i>
    <i name="e_0_energy">    -57.62548925 </i>
   </energy>
  </scstep>
  <scstep>
   <time name="dav">    1.04    1.04</time>
   <time name="total">    1.21    1.21</time>
   <energy>
    <i name="e_fr_energy">    -57.65296912 </i>
    <i name="e_wo_entrp">    -57.59801118 </i>
    <i name="e_0_energy">    -57.62549015 </i>
   </energy>
  </scstep>
  <scstep>
   <time name="dav">    0.99    0.99</time>
   <time name="total">    1.02    1.02</time>
   <energy>
    <i name="alphaZ">    291.17666724 </i>
    <i name="ewald"> 143122.89036748 </i>
    <i name="hartreedc">-163474.37608404 </i>
    <i name="XCdc">    523.74834759 </i>
    <i name="pawpsdc">  21141.36742520 </i>
    <i name="pawaedc"> -22250.71982047 </i>
    <i name="eentropy">     -0.05495788 </i>
    <i name="bandstr">   -817.25749244 </i>
    <i name="atom">  21405.57257776 </i>
    <i name="e_fr_energy">    -57.65296958 </i>
    <i name="e_wo_entrp">    -57.59801170 </i>
    <i name="e_0_energy">    -57.62549064 </i>
   </energy>
  </scstep>
  <structure>
   <crystal>
    <varray name="basis" >
     <v>       5.27855212       0.00000000       0.00000000 </v>
     <v>       2.63927606       4.57136023       0.00000000 </v>
     <v>       0.00000000       0.00000000      30.46487964 </v>
    </varray>
    <i name="volume">    735.12251919 </i>
    <varray name="rec_basis" >
     <v>       0.18944589      -0.10937664       0.00000000 </v>
     <v>       0.00000000       0.21875327       0.00000000 </v>
     <v>       0.00000000       0.00000000       0.03282468 </v>
    </varray>
   </crystal>
   <varray name="positions" >
    <v>       0.00000000       0.00000000       0.39389619 </v>
    <v>       0.50000000       0.00000000       0.39389619 </v>
    <v>       0.00000000       0.50000000       0.39389619 </v>
    <v>       0.50000000       0.50000000       0.39389619 </v>
    <v>       0.16666667       0.16666667       0.46463206 </v>
    <v>       0.66666667       0.16666667       0.46463206 </v>
    <v>       0.16666667       0.66666667       0.46463206 </v>
    <v>       0.66666667       0.66666667       0.46463206 </v>
    <v>       0.83333333       0.33333333       0.53536794 </v>
    <v>       0.33333333       0.33333333       0.53536794 </v>
    <v>       0.83333333       0.83333333       0.53536794 </v>
    <v>       0.33333333       0.83333333       0.53536794 </v>
    <v>       0.00000000       0.00000000       0.60610381 </v>
    <v>       0.50000000       0.00000000       0.60610381 </v>
    <v>       0.00000000       0.50000000       0.60610381 </v>
    <v>       0.50000000       0.50000000       0.60610381 </v>
    <v>       0.16666667       0.16666667       0.66518824 </v>
    <v>       0.16666667       0.16666667       0.70228013 </v>
   </varray>
  </structure>
  <varray name="forces" >
   <v>       0.05542912       0.02760997       0.14646160 </v>
   <v>      -0.05645195       0.27471681      -0.18079697 </v>
   <v>       0.21291950      -0.18603284      -0.17704341 </v>
   <v>      -0.35584743      -0.19856344      -1.43794810 </v>
   <v>       0.00384124       0.23734983      -0.18239521 </v>
   <v>      -0.00085824      -0.22429744       0.42516979 </v>
   <v>      -0.40075589      -0.01028991       0.08085317 </v>
   <v>       0.68871648      -0.00780771       0.07442707 </v>
   <v>       0.22076805      -0.36546410      -0.12056279 </v>
   <v>      -0.21961034      -0.12731549      -0.46521815 </v>
   <v>       0.20405852       0.12420251       0.41403635 </v>
   <v>      -0.34872586       0.63889367      -0.12248788 </v>
   <v>      -0.13744445       0.15435252       0.51646597 </v>
   <v>       0.13630940       0.15583245       0.52749198 </v>
   <v>      -0.00040983      -0.07298129       0.18988454 </v>
   <v>       0.00215723      -0.40365102       1.20696232 </v>
   <v>      -0.00635394      -0.02921313      -5.32165232 </v>
   <v>       0.00225838       0.01265863       4.42635202 </v>
  </varray>
  <varray name="stress" >
   <v>      16.80477006       0.35516959      -0.03764817 </v>
   <v>       0.35516949      16.89412219      -0.09582397 </v>
   <v>      -0.03764809      -0.09582381      26.11003370 </v>
  </varray>
  <energy>
   <i name="e_fr_energy">    -57.65296958 </i>
   <i name="e_wo_entrp">    -57.59801170 </i>
   <i name="e_0_energy">    -57.62549064 </i>
  </energy>
  <time name="totalsc">   62.04   62.18</time>
 </calculation>
 <calculation>
  <scstep>
   <time name="dav">    1.41    1.41</time>
   <time name="total">    1.56    1.57</time>
   <energy>
    <i name="alphaZ">    291.17666724 </i>
    <i name="ewald"> 142574.17747727 </i>
    <i name="hartreedc">-162948.60455708 </i>
    <i name="XCdc">    522.48467426 </i>
    <i name="pawpsdc">  21141.36538541 </i>
    <i name="pawaedc"> -22250.71775026 </i>
    <i name="eentropy">     -0.03803344 </i>
    <i name="bandstr">   -790.00824871 </i>
    <i name="atom">  21405.57257776 </i>
    <i name="e_fr_energy">    -54.59180755 </i>
    <i name="e_wo_entrp">    -54.55377411 </i>
    <i name="e_0_energy">    -54.57279083 </i>
   </energy>
  </scstep>
  <scstep>
   <time name="dav">    2.28    2.29</time>
   <time name="total">    2.44    2.44</time>
   <energy>
    <i name="e_fr_energy">    -59.45395277 </i>
    <i name="e_wo_entrp">    -59.41288036 </i>
    <i name="e_0_energy">    -59.43341657 </i>
   </energy>
  </scstep>
  <scstep>
   <time name="dav">    2.04    2.04</time>
   <time name="total">    2.19    2.20</time>
   <energy>
    <i name="e_fr_energy">    -55.07545116 </i>
    <i name="e_wo_entrp">    -55.03269867 </i>
    <i name="e_0_energy">    -55.05407491 </i>
   </energy>
  </scstep>
  <scstep>
   <time name="dav">    2.19    2.19</time>
   <time name="total">    2.34    2.35</time>
   <energy>
    <i name="e_fr_energy">    -54.96523776 </i>
    <i name="e_wo_entrp">    -54.92145827 </i>
    <i name="e_0_energy">    -54.94334802 </i>
   </energy>
  </scstep>
  <scstep>
   <time name="dav">    1.79    1.80</time>
   <time name="total">    1.95    1.95</time>
   <energy>
    <i name="e_fr_energy">    -54.95702494 </i>
    <i name="e_wo_entrp">    -54.90536938 </i>
    <i name="e_0_energy">    -54.93119716 </i>
   </energy>
  </scstep>
  <scstep>
   <time name="dav">    1.78    1.79</time>
   <time name="total">    1.94    1.94</time>
   <energy>
    <i name="e_fr_energy">    -54.91223343 </i>
    <i name="e_wo_entrp">    -54.86197465 </i>
    <i name="e_0_energy">    -54.88710404 </i>
   </energy>
  </scstep>
  <scstep>
   <time name="dav">    2.03    2.04</time>
   <time name="total">    2.18    2.19</time>
   <energy>
    <i name="e_fr_energy">    -54.90560867 </i>
    <i name="e_wo_entrp">    -54.85207703 </i>
    <i name="e_0_energy">    -54.87884285 </i>
   </energy>
  </scstep>
  <scstep>
   <time name="dav">    2.01    2.01</time>
   <time name="total">    2.16    2.17</time>
   <energy>
    <i name="e_fr_energy">    -54.89182735 </i>
    <i name="e_wo_entrp">    -54.83918196 </i>
    <i name="e_0_energy">    -54.86550466 </i>
   </energy>
  </scstep>
  <scstep>
   <time name="dav">    1.89    1.90</time>
   <time name="total">    2.06    2.06</time>
   <energy>
    <i name="e_fr_energy">    -54.89602243 </i>
    <i name="e_wo_entrp">    -54.84329337 </i>
    <i name="e_0_energy">    -54.86965790 </i>
   </energy>
  </scstep>
  <scstep>
   <time name="dav">    1.73    1.74</time>
   <time name="total">    1.89    1.89</time>
   <energy>
    <i name="e_fr_energy">    -54.89898736 </i>
    <i name="e_wo_entrp">    -54.84617548 </i>
    <i name="e_0_energy">    -54.87258142 </i>
   </energy>
  </scstep>
  <scstep>
   <time name="dav">    1.72    1.72</time>
   <time name="total">    1.87    1.88</time>
   <energy>
    <i name="e_fr_energy">    -54.90016779 </i>
    <i name="e_wo_entrp">    -54.84736523 </i>
    <i name="e_0_energy">    -54.87376651 </i>
   </energy>
  </scstep>
  <scstep>
   <time name="dav">    1.69    1.69</time>
   <time name="total">    1.85    1.85</time>
   <energy>
    <i name="e_fr_energy">    -54.90110602 </i>
    <i name="e_wo_entrp">    -54.84832051 </i>
    <i name="e_0_energy">    -54.87471326 </i>
   </energy>
  </scstep>
  <scstep>
   <time name="dav">    1.64    1.64</time>
   <time name="total">    1.79    1.80</time>
   <energy>
    <i name="e_fr_energy">    -54.90158985 </i>
    <i name="e_wo_entrp">    -54.84886028 </i>
    <i name="e_0_energy">    -54.87522507 </i>
   </energy>
  </scstep>
  <scstep>
   <time name="dav">    1.78    1.78</time>
   <time name="total">    1.93    1.94</time>
   <energy>
    <i name="e_fr_energy">    -54.90257775 </i>
    <i name="e_wo_entrp">    -54.84981414 </i>
    <i name="e_0_energy">    -54.87619595 </i>
   </energy>
  </scstep>
  <scstep>
   <time name="dav">    1.90    1.91</time>
   <time name="total">    2.06    2.06</time>
   <energy>
    <i name="e_fr_energy">    -54.90304846 </i>
    <i name="e_wo_entrp">    -54.85030333 </i>
    <i name="e_0_energy">    -54.87667590 </i>
   </energy>
  </scstep>
  <scstep>
   <time name="dav">    1.98    1.99</time>
   <time name="total">    2.14    2.14</time>
   <energy>
    <i name="e_fr_energy">    -54.90326387 </i>
    <i name="e_wo_entrp">    -54.85050173 </i>
    <i name="e_0_energy">    -54.87688280 </i>
   </energy>
  </scstep>
  <scstep>
   <time name="dav">    1.84    1.84</time>
   <time name="total">    1.99    2.00</time>
   <energy>
    <i name="e_fr_energy">    -54.90352275 </i>
    <i name="e_wo_entrp">    -54.85078129 </i>
    <i name="e_0_energy">    -54.87715202 </i>
   </energy>
  </scstep>
  <scstep>
   <time name="dav">    1.83    1.83</time>
   <time name="total">    1.99    1.99</time>
   <energy>
    <i name="e_fr_energy">    -54.90367846 </i>
    <i name="e_wo_entrp">    -54.85093924 </i>
    <i name="e_0_energy">    -54.87730885 </i>
   </energy>
  </scstep>
  <scstep>
   <time name="dav">    1.62    1.62</time>
   <time name="total">    1.78    1.78</time>
   <energy>
    <i name="e_fr_energy">    -54.90373032 </i>
    <i name="e_wo_entrp">    -54.85098566 </i>
    <i name="e_0_energy">    -54.87735799 </i>
   </energy>
  </scstep>
  <scstep>
   <time name="dav">    1.25    1.25</time>
   <time name="total">    1.41    1.42</time>
   <energy>
    <i name="e_fr_energy">    -54.90377053 </i>
    <i name="e_wo_entrp">    -54.85102320 </i>
    <i name="e_0_energy">    -54.87739686 </i>
   </energy>
  </scstep>
  <scstep>
   <time name="dav">    1.32    1.32</time>
   <time name="total">    1.48    1.48</time>
   <energy>
    <i name="e_fr_energy">    -54.90380414 </i>
    <i name="e_wo_entrp">    -54.85105972 </i>
    <i name="e_0_energy">    -54.87743193 </i>
   </energy>
  </scstep>
  <scstep>
   <time name="dav">    1.17    1.17</time>
   <time name="total">    1.33    1.33</time>
   <energy>
    <i name="e_fr_energy">    -54.90382697 </i>
    <i name="e_wo_entrp">    -54.85108255 </i>
    <i name="e_0_energy">    -54.87745476 </i>
   </energy>
  </scstep>
  <scstep>
   <time name="dav">    1.08    1.09</time>
   <time name="total">    1.24    1.25</time>
   <energy>
    <i name="e_fr_energy">    -54.90383452 </i>
    <i name="e_wo_entrp">    -54.85108925 </i>
    <i name="e_0_energy">    -54.87746189 </i>
   </energy>
  </scstep>
  <scstep>
   <time name="dav">    1.07    1.07</time>
   <time name="total">    1.23    1.23</time>
   <energy>
    <i name="e_fr_energy">    -54.90384200 </i>
    <i name="e_wo_entrp">    -54.85109707 </i>
    <i name="e_0_energy">    -54.87746954 </i>
   </energy>
  </scstep>
  <scstep>
   <time name="dav">    1.05    1.05</time>
   <time name="total">    1.21    1.21</time>
   <energy>
    <i name="e_fr_energy">    -54.90384616 </i>
    <i name="e_wo_entrp">    -54.85110168 </i>
    <i name="e_0_energy">    -54.87747392 </i>
   </energy>
  </scstep>
  <scstep>
   <time name="dav">    1.02    1.02</time>
   <time name="total">    1.18    1.19</time>
   <energy>
    <i name="e_fr_energy">    -54.90384790 </i>
    <i name="e_wo_entrp">    -54.85110338 </i>
    <i name="e_0_energy">    -54.87747564 </i>
   </energy>
  </scstep>
  <scstep>
   <time name="dav">    0.98    0.98</time>
   <time name="total">    1.14    1.14</time>
   <energy>
    <i name="e_fr_energy">    -54.90384901 </i>
    <i name="e_wo_entrp">    -54.85110424 </i>
    <i name="e_0_energy">    -54.87747663 </i>
   </energy>
  </scstep>
  <scstep>
   <time name="dav">    1.01    1.01</time>
   <time name="total">    1.18    1.18</time>
   <energy>
    <i name="e_fr_energy">    -54.90385068 </i>
    <i name="e_wo_entrp">    -54.85110591 </i>
    <i name="e_0_energy">    -54.87747830 </i>
   </energy>
  </scstep>
  <scstep>
   <time name="dav">    0.98    0.98</time>
   <time name="total">    1.00    1.01</time>
   <energy>
    <i name="alphaZ">    291.17666724 </i>
    <i name="ewald"> 142574.17747727 </i>
    <i name="hartreedc">-162795.47298800 </i>
    <i name="XCdc">    521.58826381 </i>
    <i name="pawpsdc">  20779.20322827 </i>
    <i name="pawaedc"> -21888.19253482 </i>
    <i name="eentropy">     -0.05274487 </i>
    <i name="bandstr">   -942.90379801 </i>
    <i name="atom">  21405.57257776 </i>
    <i name="e_fr_energy">    -54.90385136 </i>
    <i name="e_wo_entrp">    -54.85110649 </i>
    <i name="e_0_energy">    -54.87747893 </i>
   </energy>
  </scstep>
  <structure>
   <crystal>
    <varray name="basis" >
     <v>       5.27855212       0.00000000       0.00000000 </v>
     <v>       2.63927606       4.57136023       0.00000000 </v>
     <v>       0.00000000       0.00000000      30.46487964 </v>
    </varray>
    <i name="volume">    735.12251919 </i>
    <varray name="rec_basis" >
     <v>       0.18944589      -0.10937664       0.00000000 </v>
     <v>       0.00000000       0.21875327       0.00000000 </v>
     <v>       0.00000000       0.00000000       0.03282468 </v>
    </varray>
   </crystal>
   <varray name="positions" >
    <v>       0.00000000       0.00000000       0.39389619 </v>
    <v>       0.50000000       0.00000000       0.39389619 </v>
    <v>       0.00000000       0.50000000       0.39389619 </v>
    <v>       0.50000000       0.50000000       0.39389619 </v>
    <v>       0.16666667       0.16666667       0.46463206 </v>
    <v>       0.66666667       0.16666667       0.46463206 </v>
    <v>       0.16666667       0.66666667       0.46463206 </v>
    <v>       0.66666667       0.66666667       0.46463206 </v>
    <v>       0.83727943       0.32947650       0.53517702 </v>
    <v>       0.33199803       0.33198974       0.53463124 </v>
    <v>       0.83454293       0.83464407       0.53602358 </v>
    <v>       0.32677500       0.84007573       0.53517397 </v>
    <v>       0.99792938       0.00162892       0.60692166 </v>
    <v>       0.50042351       0.00164454       0.60693912 </v>
    <v>       0.00038135       0.49922981       0.60640450 </v>
    <v>       0.50214963       0.49574017       0.60801510 </v>
    <v>       0.16676274       0.16635837       0.65676114 </v>
    <v>       0.16662051       0.16680026       0.70928948 </v>
   </varray>
  </structure>
  <varray name="forces" >
   <v>       0.02451350       0.01104067       0.15397456 </v>
   <v>      -0.02512873       0.25989303      -0.17450587 </v>
   <v>       0.21477329      -0.14941955      -0.16728297 </v>
   <v>      -0.35363485      -0.19618752      -1.42727030 </v>
   <v>       0.00270239       0.25518468      -0.24179292 </v>
   <v>       0.00508048      -0.23386383       0.39290637 </v>
   <v>      -0.40882797      -0.00279368       0.04537348 </v>
   <v>       0.68480084       0.01090601       0.16915440 </v>
   <v>      -0.06849716       0.02397456      -0.00445637 </v>
   <v>       0.03138164       0.07266017      -0.26725774 </v>
   <v>       0.00525637       0.05720652       0.42914372 </v>
   <v>      -0.10387451      -0.02930198       0.24067908 </v>
   <v>       0.15563292       0.11600499       0.80407886 </v>
   <v>      -0.16933689       0.11769992       0.74843420 </v>
   <v>       0.00741876      -0.25160701       0.47731135 </v>
   <v>      -0.00186211      -0.05432848       0.82457656 </v>
   <v>       0.00053401      -0.00604231       7.37024016 </v>
   <v>      -0.00093199      -0.00102619      -9.37330658 </v>
  </varray>
  <varray name="stress" >
   <v>      16.20366763       0.31805102      -0.05414543 </v>
   <v>       0.31805146      16.09631719       0.27462153 </v>
   <v>      -0.05414530       0.27462139     -23.94663294 </v>
  </varray>
  <energy>
   <i name="e_fr_energy">    -54.90385136 </i>
   <i name="e_wo_entrp">    -54.85110649 </i>
   <i name="e_0_energy">    -54.87747893 </i>
  </energy>
  <time name="totalsc">   52.95   53.07</time>
 </calculation>
 <calculation>
  <scstep>
   <time name="dav">    1.39    1.40</time>
   <time name="total">    1.55    1.55</time>
   <energy>
    <i name="alphaZ">    291.17666724 </i>
    <i name="ewald"> 142895.87280700 </i>
    <i name="hartreedc">-163107.39856136 </i>
    <i name="XCdc">    522.12674828 </i>
    <i name="pawpsdc">  20779.20217043 </i>
    <i name="pawaedc"> -21888.19149797 </i>
    <i name="eentropy">     -0.04673195 </i>
    <i name="bandstr">   -954.69320037 </i>
    <i name="atom">  21405.57257776 </i>
    <i name="e_fr_energy">    -56.37902095 </i>
    <i name="e_wo_entrp">    -56.33228899 </i>
    <i name="e_0_energy">    -56.35565497 </i>
   </energy>
  </scstep>
  <scstep>
   <time name="dav">    2.29    2.29</time>
   <time name="total">    2.44    2.45</time>
   <energy>
    <i name="e_fr_energy">    -57.99376699 </i>
    <i name="e_wo_entrp">    -57.96190095 </i>
    <i name="e_0_energy">    -57.97783397 </i>
   </energy>
  </scstep>
  <scstep>
   <time name="dav">    2.21    2.21</time>
   <time name="total">    2.36    2.36</time>
   <energy>
    <i name="e_fr_energy">    -57.54159195 </i>
    <i name="e_wo_entrp">    -57.49929668 </i>
    <i name="e_0_energy">    -57.52044432 </i>
   </energy>
  </scstep>
  <scstep>
   <time name="dav">    1.80    1.80</time>
   <time name="total">    1.95    1.96</time>
   <energy>
    <i name="e_fr_energy">    -57.31428129 </i>
    <i name="e_wo_entrp">    -57.26311561 </i>
    <i name="e_0_energy">    -57.28869845 </i>
   </energy>
  </scstep>
  <scstep>
   <time name="dav">    2.11    2.12</time>
   <time name="total">    2.26    2.27</time>
   <energy>
    <i name="e_fr_energy">    -57.26932859 </i>
    <i name="e_wo_entrp">    -57.21723961 </i>
    <i name="e_0_energy">    -57.24328410 </i>
   </energy>
  </scstep>
  <scstep>
   <time name="dav">    1.68    1.69</time>
   <time name="total">    1.84    1.85</time>
   <energy>
    <i name="e_fr_energy">    -57.24994662 </i>
    <i name="e_wo_entrp">    -57.19472201 </i>
    <i name="e_0_energy">    -57.22233432 </i>
   </energy>
  </scstep>
  <scstep>
   <time name="dav">    1.72    1.73</time>
   <time name="total">    1.88    1.88</time>
   <energy>
    <i name="e_fr_energy">    -57.23464092 </i>
    <i name="e_wo_entrp">    -57.18057503 </i>
    <i name="e_0_energy">    -57.20760798 </i>
   </energy>
  </scstep>
  <scstep>
   <time name="dav">    1.89    1.90</time>
   <time name="total">    2.04    2.05</time>
   <energy>
    <i name="e_fr_energy">    -57.23225332 </i>
    <i name="e_wo_entrp">    -57.17779546 </i>
    <i name="e_0_energy">    -57.20502439 </i>
   </energy>
  </scstep>
  <scstep>
   <time name="dav">    1.83    1.83</time>
   <time name="total">    1.98    1.99</time>
   <energy>
    <i name="e_fr_energy">    -57.23197451 </i>
    <i name="e_wo_entrp">    -57.17825230 </i>
    <i name="e_0_energy">    -57.20511340 </i>
   </energy>
  </scstep>
  <scstep>
   <time name="dav">    1.63    1.64</time>
   <time name="total">    1.79    1.79</time>
   <energy>
    <i name="e_fr_energy">    -57.23159489 </i>
    <i name="e_wo_entrp">    -57.17729758 </i>
    <i name="e_0_energy">    -57.20444624 </i>
   </energy>
  </scstep>
  <scstep>
   <time name="dav">    1.63    1.64</time>
   <time name="total">    1.79    1.79</time>
   <energy>
    <i name="e_fr_energy">    -57.23137480 </i>
    <i name="e_wo_entrp">    -57.17713018 </i>
    <i name="e_0_energy">    -57.20425249 </i>
   </energy>
  </scstep>
  <scstep>
   <time name="dav">    1.66    1.66</time>
   <time name="total">    1.81    1.82</time>
   <energy>
    <i name="e_fr_energy">    -57.23137840 </i>
    <i name="e_wo_entrp">    -57.17714328 </i>
    <i name="e_0_energy">    -57.20426084 </i>
   </energy>
  </scstep>
  <scstep>
   <time name="dav">    1.66    1.66</time>
   <time name="total">    1.81    1.82</time>
   <energy>
    <i name="e_fr_energy">    -57.23147940 </i>
    <i name="e_wo_entrp">    -57.17725984 </i>
    <i name="e_0_energy">    -57.20436962 </i>
   </energy>
  </scstep>
  <scstep>
   <time name="dav">    1.88    1.88</time>
   <time name="total">    2.04    2.04</time>
   <energy>
    <i name="e_fr_energy">    -57.23169649 </i>
    <i name="e_wo_entrp">    -57.17744180 </i>
    <i name="e_0_energy">    -57.20456914 </i>
   </energy>
  </scstep>
  <scstep>
   <time name="dav">    1.71    1.71</time>
   <time name="total">    1.86    1.87</time>
   <energy>
    <i name="e_fr_energy">    -57.23191311 </i>
    <i name="e_wo_entrp">    -57.17764648 </i>
    <i name="e_0_energy">    -57.20477979 </i>
   </energy>
  </scstep>
  <scstep>
   <time name="dav">    1.68    1.68</time>
   <time name="total">    1.83    1.84</time>
   <energy>
    <i name="e_fr_energy">    -57.23210742 </i>
    <i name="e_wo_entrp">    -57.17784461 </i>
    <i name="e_0_energy">    -57.20497602 </i>
   </energy>
  </scstep>
  <scstep>
   <time name="dav">    1.81    1.82</time>
   <time name="total">    1.97    1.98</time>
   <energy>
    <i name="e_fr_energy">    -57.23231211 </i>
    <i name="e_wo_entrp">    -57.17804353 </i>
    <i name="e_0_energy">    -57.20517782 </i>
   </energy>
  </scstep>
  <scstep>
   <time name="dav">    1.30    1.31</time>
   <time name="total">    1.46    1.47</time>
   <energy>
    <i name="e_fr_energy">    -57.23240991 </i>
    <i name="e_wo_entrp">    -57.17814744 </i>
    <i name="e_0_energy">    -57.20527867 </i>
   </energy>
  </scstep>
  <scstep>
   <time name="dav">    1.28    1.28</time>
   <time name="total">    1.44    1.44</time>
   <energy>
    <i name="e_fr_energy">    -57.23246241 </i>
    <i name="e_wo_entrp">    -57.17819846 </i>
    <i name="e_0_energy">    -57.20533044 </i>
   </energy>
  </scstep>
  <scstep>
   <time name="dav">    1.25    1.25</time>
   <time name="total">    1.40    1.41</time>
   <energy>
    <i name="e_fr_energy">    -57.23252942 </i>
    <i name="e_wo_entrp">    -57.17826520 </i>
    <i name="e_0_energy">    -57.20539731 </i>
   </energy>
  </scstep>
  <scstep>
   <time name="dav">    1.12    1.12</time>
   <time name="total">    1.28    1.28</time>
   <energy>
    <i name="e_fr_energy">    -57.23255368 </i>
    <i name="e_wo_entrp">    -57.17828815 </i>
    <i name="e_0_energy">    -57.20542091 </i>
   </energy>
  </scstep>
  <scstep>
   <time name="dav">    1.05    1.05</time>
   <time name="total">    1.21    1.21</time>
   <energy>
    <i name="e_fr_energy">    -57.23256670 </i>
    <i name="e_wo_entrp">    -57.17830173 </i>
    <i name="e_0_energy">    -57.20543422 </i>
   </energy>
  </scstep>
  <scstep>
   <time name="dav">    1.06    1.06</time>
   <time name="total">    1.22    1.22</time>
   <energy>
    <i name="e_fr_energy">    -57.23258556 </i>
    <i name="e_wo_entrp">    -57.17831986 </i>
    <i name="e_0_energy">    -57.20545271 </i>
   </energy>
  </scstep>
  <scstep>
   <time name="dav">    1.08    1.08</time>
   <time name="total">    1.24    1.24</time>
   <energy>
    <i name="e_fr_energy">    -57.23258957 </i>
    <i name="e_wo_entrp">    -57.17832381 </i>
    <i name="e_0_energy">    -57.20545669 </i>
   </energy>
  </scstep>
  <scstep>
   <time name="dav">    0.98    0.98</time>
   <time name="total">    1.15    1.15</time>
   <energy>
    <i name="e_fr_energy">    -57.23259192 </i>
    <i name="e_wo_entrp">    -57.17832658 </i>
    <i name="e_0_energy">    -57.20545925 </i>
   </energy>
  </scstep>
  <scstep>
   <time name="dav">    1.00    1.00</time>
   <time name="total">    1.17    1.17</time>
   <energy>
    <i name="e_fr_energy">    -57.23259405 </i>
    <i name="e_wo_entrp">    -57.17832863 </i>
    <i name="e_0_energy">    -57.20546134 </i>
   </energy>
  </scstep>
  <scstep>
   <time name="dav">    0.99    0.99</time>
   <time name="total">    1.15    1.16</time>
   <energy>
    <i name="e_fr_energy">    -57.23259590 </i>
    <i name="e_wo_entrp">    -57.17833066 </i>
    <i name="e_0_energy">    -57.20546328 </i>
   </energy>
  </scstep>
  <scstep>
   <time name="dav">    0.97    0.98</time>
   <time name="total">    1.00    1.00</time>
   <energy>
    <i name="alphaZ">    291.17666724 </i>
    <i name="ewald"> 142895.87280700 </i>
    <i name="hartreedc">-163185.94438377 </i>
    <i name="XCdc">    522.61737401 </i>
    <i name="pawpsdc">  20901.18778320 </i>
    <i name="pawaedc"> -22010.26723882 </i>
    <i name="eentropy">     -0.05426555 </i>
    <i name="bandstr">   -877.39391738 </i>
    <i name="atom">  21405.57257776 </i>
    <i name="e_fr_energy">    -57.23259631 </i>
    <i name="e_wo_entrp">    -57.17833077 </i>
    <i name="e_0_energy">    -57.20546354 </i>
   </energy>
  </scstep>
  <structure>
   <crystal>
    <varray name="basis" >
     <v>       5.27855212       0.00000000       0.00000000 </v>
     <v>       2.63927606       4.57136023       0.00000000 </v>
     <v>       0.00000000       0.00000000      30.46487964 </v>
    </varray>
    <i name="volume">    735.12251919 </i>
    <varray name="rec_basis" >
     <v>       0.18944589      -0.10937664       0.00000000 </v>
     <v>       0.00000000       0.21875327       0.00000000 </v>
     <v>       0.00000000       0.00000000       0.03282468 </v>
    </varray>
   </crystal>
   <varray name="positions" >
    <v>       0.00000000       0.00000000       0.39389619 </v>
    <v>       0.50000000       0.00000000       0.39389619 </v>
    <v>       0.00000000       0.50000000       0.39389619 </v>
    <v>       0.50000000       0.50000000       0.39389619 </v>
    <v>       0.16666667       0.16666667       0.46463206 </v>
    <v>       0.66666667       0.16666667       0.46463206 </v>
    <v>       0.16666667       0.66666667       0.46463206 </v>
    <v>       0.66666667       0.66666667       0.46463206 </v>
    <v>       0.83489550       0.33180651       0.53529236 </v>
    <v>       0.33280472       0.33280144       0.53507630 </v>
    <v>       0.83381218       0.83385222       0.53562749 </v>
    <v>       0.33073705       0.83600249       0.53529115 </v>
    <v>       0.99918029       0.00064485       0.60642758 </v>
    <v>       0.50016766       0.00065103       0.60643449 </v>
    <v>       0.00015097       0.49969510       0.60622285 </v>
    <v>       0.50085099       0.49831364       0.60686044 </v>
    <v>       0.16670470       0.16654462       0.66185215 </v>
    <v>       0.16664840       0.16671955       0.70505496 </v>
   </varray>
  </structure>
  <varray name="forces" >
   <v>       0.04457215       0.02227738       0.14965164 </v>
   <v>      -0.04594469       0.26992680      -0.17779878 </v>
   <v>       0.21313746      -0.17344176      -0.17279532 </v>
   <v>      -0.35526454      -0.19726623      -1.43289587 </v>
   <v>       0.00301127       0.24437442      -0.20482128 </v>
   <v>       0.00107433      -0.22765809       0.41294555 </v>
   <v>      -0.40419498      -0.00737283       0.06721412 </v>
   <v>       0.68711366      -0.00037765       0.11276474 </v>
   <v>       0.10312860      -0.20991534      -0.06877034 </v>
   <v>      -0.11712889      -0.04593386      -0.37905488 </v>
   <v>       0.12502911       0.09752510       0.43076792 </v>
   <v>      -0.24559814       0.36560035       0.04064923 </v>
   <v>       0.02135976       0.16371601       0.68756307 </v>
   <v>      -0.02872526       0.16541395       0.67133204 </v>
   <v>       0.00241855      -0.19082196       0.35786544 </v>
   <v>      -0.00016977      -0.25859011       1.02088918 </v>
   <v>      -0.00456188      -0.02584049       6.48588903 </v>
   <v>       0.00074327       0.00838434      -8.00139550 </v>
  </varray>
  <varray name="stress" >
   <v>      16.17191589       0.36808138      -0.05325544 </v>
   <v>       0.36808160      16.15065672       0.05857682 </v>
   <v>      -0.05325507       0.05857652     -11.08417336 </v>
  </varray>
  <energy>
   <i name="e_fr_energy">    -57.23259631 </i>
   <i name="e_wo_entrp">    -57.17833077 </i>
   <i name="e_0_energy">    -57.20546354 </i>
  </energy>
  <time name="totalsc">   49.39   49.51</time>
 </calculation>
 <calculation>
  <scstep>
   <time name="dav">    1.39    1.39</time>
   <time name="total">    1.55    1.55</time>
   <energy>
    <i name="alphaZ">    291.17666724 </i>
    <i name="ewald"> 143022.21625297 </i>
    <i name="hartreedc">-163304.96409422 </i>
    <i name="XCdc">    522.94536121 </i>
    <i name="pawpsdc">  20901.18788216 </i>
    <i name="pawaedc"> -22010.26743576 </i>
    <i name="eentropy">     -0.05474227 </i>
    <i name="bandstr">   -885.46579419 </i>
    <i name="atom">  21405.57257776 </i>
    <i name="e_fr_energy">    -57.65332510 </i>
    <i name="e_wo_entrp">    -57.59858283 </i>
    <i name="e_0_energy">    -57.62595397 </i>
   </energy>
  </scstep>
  <scstep>
   <time name="dav">    2.21    2.22</time>
   <time name="total">    2.37    2.37</time>
   <energy>
    <i name="e_fr_energy">    -57.84264972 </i>
    <i name="e_wo_entrp">    -57.79684171 </i>
    <i name="e_0_energy">    -57.81974572 </i>
   </energy>
  </scstep>
  <scstep>
   <time name="dav">    2.01    2.01</time>
   <time name="total">    2.16    2.17</time>
   <energy>
    <i name="e_fr_energy">    -57.81935232 </i>
    <i name="e_wo_entrp">    -57.76323557 </i>
    <i name="e_0_energy">    -57.79129395 </i>
   </energy>
  </scstep>
  <scstep>
   <time name="dav">    1.75    1.75</time>
   <time name="total">    1.90    1.91</time>
   <energy>
    <i name="e_fr_energy">    -57.76269696 </i>
    <i name="e_wo_entrp">    -57.70902816 </i>
    <i name="e_0_energy">    -57.73586256 </i>
   </energy>
  </scstep>
  <scstep>
   <time name="dav">    1.95    1.95</time>
   <time name="total">    2.10    2.10</time>
   <energy>
    <i name="e_fr_energy">    -57.75112627 </i>
    <i name="e_wo_entrp">    -57.69809398 </i>
    <i name="e_0_energy">    -57.72461013 </i>
   </energy>
  </scstep>
  <scstep>
   <time name="dav">    1.71    1.71</time>
   <time name="total">    1.86    1.86</time>
   <energy>
    <i name="e_fr_energy">    -57.74759892 </i>
    <i name="e_wo_entrp">    -57.69240754 </i>
    <i name="e_0_energy">    -57.72000323 </i>
   </energy>
  </scstep>
  <scstep>
   <time name="dav">    1.84    1.85</time>
   <time name="total">    2.00    2.00</time>
   <energy>
    <i name="e_fr_energy">    -57.74626973 </i>
    <i name="e_wo_entrp">    -57.69152940 </i>
    <i name="e_0_energy">    -57.71889957 </i>
   </energy>
  </scstep>
  <scstep>
   <time name="dav">    1.85    1.85</time>
   <time name="total">    2.00    2.01</time>
   <energy>
    <i name="e_fr_energy">    -57.74630195 </i>
    <i name="e_wo_entrp">    -57.69151807 </i>
    <i name="e_0_energy">    -57.71891001 </i>
   </energy>
  </scstep>
  <scstep>
   <time name="dav">    1.70    1.70</time>
   <time name="total">    1.85    1.86</time>
   <energy>
    <i name="e_fr_energy">    -57.74632392 </i>
    <i name="e_wo_entrp">    -57.69185604 </i>
    <i name="e_0_energy">    -57.71908998 </i>
   </energy>
  </scstep>
  <scstep>
   <time name="dav">    1.66    1.66</time>
   <time name="total">    1.82    1.82</time>
   <energy>
    <i name="e_fr_energy">    -57.74635738 </i>
    <i name="e_wo_entrp">    -57.69170788 </i>
    <i name="e_0_energy">    -57.71903263 </i>
   </energy>
  </scstep>
  <scstep>
   <time name="dav">    1.85    1.86</time>
   <time name="total">    2.01    2.01</time>
   <energy>
    <i name="e_fr_energy">    -57.74646224 </i>
    <i name="e_wo_entrp">    -57.69179341 </i>
    <i name="e_0_energy">    -57.71912782 </i>
   </energy>
  </scstep>
  <scstep>
   <time name="dav">    1.64    1.65</time>
   <time name="total">    1.80    1.80</time>
   <energy>
    <i name="e_fr_energy">    -57.74658502 </i>
    <i name="e_wo_entrp">    -57.69189331 </i>
    <i name="e_0_energy">    -57.71923917 </i>
   </energy>
  </scstep>
  <scstep>
   <time name="dav">    1.56    1.57</time>
   <time name="total">    1.72    1.72</time>
   <energy>
    <i name="e_fr_energy">    -57.74668841 </i>
    <i name="e_wo_entrp">    -57.69200821 </i>
    <i name="e_0_energy">    -57.71934831 </i>
   </energy>
  </scstep>
  <scstep>
   <time name="dav">    1.82    1.83</time>
   <time name="total">    1.98    1.98</time>
   <energy>
    <i name="e_fr_energy">    -57.74683818 </i>
    <i name="e_wo_entrp">    -57.69213993 </i>
    <i name="e_0_energy">    -57.71948906 </i>
   </energy>
  </scstep>
  <scstep>
   <time name="dav">    1.48    1.48</time>
   <time name="total">    1.63    1.63</time>
   <energy>
    <i name="e_fr_energy">    -57.74694148 </i>
    <i name="e_wo_entrp">    -57.69224227 </i>
    <i name="e_0_energy">    -57.71959187 </i>
   </energy>
  </scstep>
  <scstep>
   <time name="dav">    1.25    1.25</time>
   <time name="total">    1.41    1.41</time>
   <energy>
    <i name="e_fr_energy">    -57.74701760 </i>
    <i name="e_wo_entrp">    -57.69232134 </i>
    <i name="e_0_energy">    -57.71966947 </i>
   </energy>
  </scstep>
  <scstep>
   <time name="dav">    1.26    1.26</time>
   <time name="total">    1.41    1.42</time>
   <energy>
    <i name="e_fr_energy">    -57.74707325 </i>
    <i name="e_wo_entrp">    -57.69237492 </i>
    <i name="e_0_energy">    -57.71972409 </i>
   </energy>
  </scstep>
  <scstep>
   <time name="dav">    1.18    1.19</time>
   <time name="total">    1.34    1.34</time>
   <energy>
    <i name="e_fr_energy">    -57.74710908 </i>
    <i name="e_wo_entrp">    -57.69241336 </i>
    <i name="e_0_energy">    -57.71976122 </i>
   </energy>
  </scstep>
  <scstep>
   <time name="dav">    1.11    1.11</time>
   <time name="total">    1.27    1.27</time>
   <energy>
    <i name="e_fr_energy">    -57.74712143 </i>
    <i name="e_wo_entrp">    -57.69242206 </i>
    <i name="e_0_energy">    -57.71977175 </i>
   </energy>
  </scstep>
  <scstep>
   <time name="dav">    1.09    1.09</time>
   <time name="total">    1.24    1.25</time>
   <energy>
    <i name="e_fr_energy">    -57.74714136 </i>
    <i name="e_wo_entrp">    -57.69244270 </i>
    <i name="e_0_energy">    -57.71979203 </i>
   </energy>
  </scstep>
  <scstep>
   <time name="dav">    1.07    1.07</time>
   <time name="total">    1.23    1.23</time>
   <energy>
    <i name="e_fr_energy">    -57.74714703 </i>
    <i name="e_wo_entrp">    -57.69244863 </i>
    <i name="e_0_energy">    -57.71979783 </i>
   </energy>
  </scstep>
  <scstep>
   <time name="dav">    1.04    1.05</time>
   <time name="total">    1.21    1.22</time>
   <energy>
    <i name="e_fr_energy">    -57.74715100 </i>
    <i name="e_wo_entrp">    -57.69245286 </i>
    <i name="e_0_energy">    -57.71980193 </i>
   </energy>
  </scstep>
  <scstep>
   <time name="dav">    1.04    1.05</time>
   <time name="total">    1.21    1.21</time>
   <energy>
    <i name="e_fr_energy">    -57.74715325 </i>
    <i name="e_wo_entrp">    -57.69245479 </i>
    <i name="e_0_energy">    -57.71980402 </i>
   </energy>
  </scstep>
  <scstep>
   <time name="dav">    1.02    1.02</time>
   <time name="total">    1.18    1.18</time>
   <energy>
    <i name="e_fr_energy">    -57.74715535 </i>
    <i name="e_wo_entrp">    -57.69245703 </i>
    <i name="e_0_energy">    -57.71980619 </i>
   </energy>
  </scstep>
  <scstep>
   <time name="dav">    1.02    1.02</time>
   <time name="total">    1.05    1.05</time>
   <energy>
    <i name="alphaZ">    291.17666724 </i>
    <i name="ewald"> 143022.21625297 </i>
    <i name="hartreedc">-163346.10854567 </i>
    <i name="XCdc">    523.20179762 </i>
    <i name="pawpsdc">  21012.79683554 </i>
    <i name="pawaedc"> -22122.00639303 </i>
    <i name="eentropy">     -0.05469820 </i>
    <i name="bandstr">   -844.54165021 </i>
    <i name="atom">  21405.57257776 </i>
    <i name="e_fr_energy">    -57.74715598 </i>
    <i name="e_wo_entrp">    -57.69245778 </i>
    <i name="e_0_energy">    -57.71980688 </i>
   </energy>
  </scstep>
  <structure>
   <crystal>
    <varray name="basis" >
     <v>       5.27855212       0.00000000       0.00000000 </v>
     <v>       2.63927606       4.57136023       0.00000000 </v>
     <v>       0.00000000       0.00000000      30.46487964 </v>
    </varray>
    <i name="volume">    735.12251919 </i>
    <varray name="rec_basis" >
     <v>       0.18944589      -0.10937664       0.00000000 </v>
     <v>       0.00000000       0.21875327       0.00000000 </v>
     <v>       0.00000000       0.00000000       0.03282468 </v>
    </varray>
   </crystal>
   <varray name="positions" >
    <v>       0.00000000       0.00000000       0.39389619 </v>
    <v>       0.50000000       0.00000000       0.39389619 </v>
    <v>       0.00000000       0.50000000       0.39389619 </v>
    <v>       0.50000000       0.50000000       0.39389619 </v>
    <v>       0.16666667       0.16666667       0.46463206 </v>
    <v>       0.66666667       0.16666667       0.46463206 </v>
    <v>       0.16666667       0.66666667       0.46463206 </v>
    <v>       0.66666667       0.66666667       0.46463206 </v>
    <v>       0.83401242       0.33266961       0.53533508 </v>
    <v>       0.33310354       0.33310212       0.53524116 </v>
    <v>       0.83354149       0.83355890       0.53548077 </v>
    <v>       0.33220471       0.83449363       0.53533456 </v>
    <v>       0.99964367       0.00028032       0.60624455 </v>
    <v>       0.50007288       0.00028301       0.60624756 </v>
    <v>       0.00006563       0.49986746       0.60615556 </v>
    <v>       0.50036993       0.49926693       0.60643272 </v>
    <v>       0.16668320       0.16661361       0.66373802 </v>
    <v>       0.16665872       0.16668966       0.70348637 </v>
   </varray>
  </structure>
  <varray name="forces" >
   <v>       0.05129379       0.02556493       0.14691737 </v>
   <v>      -0.05224413       0.27284702      -0.18037735 </v>
   <v>       0.21306376      -0.18115631      -0.17612429 </v>
   <v>      -0.35547814      -0.19799920      -1.43658879 </v>
   <v>       0.00357464       0.24034657      -0.19301854 </v>
   <v>       0.00005366      -0.22567614       0.41908401 </v>
   <v>      -0.40207937      -0.00913314       0.07413854 </v>
   <v>       0.68812022      -0.00464298       0.09041398 </v>
   <v>       0.16974615      -0.29769215      -0.09815848 </v>
   <v>      -0.17491136      -0.09196847      -0.42674240 </v>
   <v>       0.16978291       0.11259694       0.42136580 </v>
   <v>      -0.30551432       0.52085245      -0.04571210 </v>
   <v>      -0.06285035       0.16145111       0.59686317 </v>
   <v>       0.05924217       0.16306309       0.59602907 </v>
   <v>       0.00091158      -0.12997800       0.26887893 </v>
   <v>       0.00116772      -0.34131347       1.11238925 </v>
   <v>      -0.00585759      -0.02943778       2.01325719 </v>
   <v>       0.00197865       0.01227551      -3.18261535 </v>
  </varray>
  <varray name="stress" >
   <v>      16.46292717       0.36583946      -0.04569172 </v>
   <v>       0.36583952      16.51486609      -0.01697427 </v>
   <v>      -0.04569203      -0.01697389       5.23148175 </v>
  </varray>
  <energy>
   <i name="e_fr_energy">    -57.74715598 </i>
   <i name="e_wo_entrp">    -57.69245778 </i>
   <i name="e_0_energy">    -57.71980688 </i>
  </energy>
  <time name="totalsc">   43.72   43.82</time>
 </calculation>
 <calculation>
  <scstep>
   <time name="dav">    1.41    1.41</time>
   <time name="total">    1.56    1.57</time>
   <energy>
    <i name="alphaZ">    291.17666724 </i>
    <i name="ewald"> 143051.53278963 </i>
    <i name="hartreedc">-163373.36813016 </i>
    <i name="XCdc">    523.28773566 </i>
    <i name="pawpsdc">  21012.79697870 </i>
    <i name="pawaedc"> -22122.00661581 </i>
    <i name="eentropy">     -0.05505641 </i>
    <i name="bandstr">   -846.71306024 </i>
    <i name="atom">  21405.57257776 </i>
    <i name="e_fr_energy">    -57.77611363 </i>
    <i name="e_wo_entrp">    -57.72105722 </i>
    <i name="e_0_energy">    -57.74858543 </i>
   </energy>
  </scstep>
  <scstep>
   <time name="dav">    2.15    2.16</time>
   <time name="total">    2.31    2.31</time>
   <energy>
    <i name="e_fr_energy">    -57.78372826 </i>
    <i name="e_wo_entrp">    -57.73029290 </i>
    <i name="e_0_energy">    -57.75701058 </i>
   </energy>
  </scstep>
  <scstep>
   <time name="dav">    1.80    1.81</time>
   <time name="total">    1.96    1.96</time>
   <energy>
    <i name="e_fr_energy">    -57.78404269 </i>
    <i name="e_wo_entrp">    -57.72823272 </i>
    <i name="e_0_energy">    -57.75613771 </i>
   </energy>
  </scstep>
  <scstep>
   <time name="dav">    1.68    1.69</time>
   <time name="total">    1.84    1.84</time>
   <energy>
    <i name="e_fr_energy">    -57.78018400 </i>
    <i name="e_wo_entrp">    -57.72558009 </i>
    <i name="e_0_energy">    -57.75288205 </i>
   </energy>
  </scstep>
  <scstep>
   <time name="dav">    1.84    1.85</time>
   <time name="total">    2.00    2.00</time>
   <energy>
    <i name="e_fr_energy">    -57.77941434 </i>
    <i name="e_wo_entrp">    -57.72495984 </i>
    <i name="e_0_energy">    -57.75218709 </i>
   </energy>
  </scstep>
  <scstep>
   <time name="dav">    1.70    1.71</time>
   <time name="total">    1.86    1.86</time>
   <energy>
    <i name="e_fr_energy">    -57.77933184 </i>
    <i name="e_wo_entrp">    -57.72440177 </i>
    <i name="e_0_energy">    -57.75186681 </i>
   </energy>
  </scstep>
  <scstep>
   <time name="dav">    1.79    1.80</time>
   <time name="total">    1.95    1.95</time>
   <energy>
    <i name="e_fr_energy">    -57.77929596 </i>
    <i name="e_wo_entrp">    -57.72449404 </i>
    <i name="e_0_energy">    -57.75189500 </i>
   </energy>
  </scstep>
  <scstep>
   <time name="dav">    1.84    1.85</time>
   <time name="total">    2.00    2.00</time>
   <energy>
    <i name="e_fr_energy">    -57.77931816 </i>
    <i name="e_wo_entrp">    -57.72454446 </i>
    <i name="e_0_energy">    -57.75193131 </i>
   </energy>
  </scstep>
  <scstep>
   <time name="dav">    1.64    1.65</time>
   <time name="total">    1.80    1.80</time>
   <energy>
    <i name="e_fr_energy">    -57.77933806 </i>
    <i name="e_wo_entrp">    -57.72459245 </i>
    <i name="e_0_energy">    -57.75196526 </i>
   </energy>
  </scstep>
  <scstep>
   <time name="dav">    1.50    1.51</time>
   <time name="total">    1.66    1.66</time>
   <energy>
    <i name="e_fr_energy">    -57.77935173 </i>
    <i name="e_wo_entrp">    -57.72458287 </i>
    <i name="e_0_energy">    -57.75196730 </i>
   </energy>
  </scstep>
  <scstep>
   <time name="dav">    1.17    1.18</time>
   <time name="total">    1.33    1.33</time>
   <energy>
    <i name="e_fr_energy">    -57.77937326 </i>
    <i name="e_wo_entrp">    -57.72459916 </i>
    <i name="e_0_energy">    -57.75198621 </i>
   </energy>
  </scstep>
  <scstep>
   <time name="dav">    1.33    1.34</time>
   <time name="total">    1.49    1.49</time>
   <energy>
    <i name="e_fr_energy">    -57.77939329 </i>
    <i name="e_wo_entrp">    -57.72461258 </i>
    <i name="e_0_energy">    -57.75200293 </i>
   </energy>
  </scstep>
  <scstep>
   <time name="dav">    1.09    1.10</time>
   <time name="total">    1.25    1.25</time>
   <energy>
    <i name="e_fr_energy">    -57.77940499 </i>
    <i name="e_wo_entrp">    -57.72462742 </i>
    <i name="e_0_energy">    -57.75201620 </i>
   </energy>
  </scstep>
  <scstep>
   <time name="dav">    1.10    1.10</time>
   <time name="total">    1.25    1.25</time>
   <energy>
    <i name="e_fr_energy">    -57.77942738 </i>
    <i name="e_wo_entrp">    -57.72464843 </i>
    <i name="e_0_energy">    -57.75203790 </i>
   </energy>
  </scstep>
  <scstep>
   <time name="dav">    1.08    1.08</time>
   <time name="total">    1.23    1.23</time>
   <energy>
    <i name="e_fr_energy">    -57.77943528 </i>
    <i name="e_wo_entrp">    -57.72465469 </i>
    <i name="e_0_energy">    -57.75204498 </i>
   </energy>
  </scstep>
  <scstep>
   <time name="dav">    1.05    1.05</time>
   <time name="total">    1.20    1.21</time>
   <energy>
    <i name="e_fr_energy">    -57.77944271 </i>
    <i name="e_wo_entrp">    -57.72466491 </i>
    <i name="e_0_energy">    -57.75205381 </i>
   </energy>
  </scstep>
  <scstep>
   <time name="dav">    1.07    1.07</time>
   <time name="total">    1.22    1.23</time>
   <energy>
    <i name="e_fr_energy">    -57.77944935 </i>
    <i name="e_wo_entrp">    -57.72466961 </i>
    <i name="e_0_energy">    -57.75205948 </i>
   </energy>
  </scstep>
  <scstep>
   <time name="dav">    1.03    1.03</time>
   <time name="total">    1.19    1.19</time>
   <energy>
    <i name="e_fr_energy">    -57.77945302 </i>
    <i name="e_wo_entrp">    -57.72467445 </i>
[...]
        <r>  0.0001  0.0040  0.0005  0.0120  0.0009  0.0009  0.0000  0.0012  0.0022 </r>
        <r>  0.0010  0.0014  0.0000  0.0039  0.0013  0.0000  0.0012  0.0001  0.0053 </r>
        <r>  0.0033  0.0048  0.0064  0.0063  0.0011  0.0031  0.0013  0.0008  0.0050 </r>
        <r>  0.0002  0.0014  0.0106  0.0019  0.0018  0.0012  0.0001  0.0004  0.0042 </r>
        <r>  0.0000  0.0016  0.0003  0.0057  0.0021  0.0007  0.0017  0.0039  0.0014 </r>
        <r>  0.0001  0.0060  0.0006  0.0018  0.0006  0.0056  0.0022  0.0002  0.0013 </r>
        <r>  0.0176  0.0002  0.0124  0.0008  0.0004  0.0028  0.0007  0.0012  0.0007 </r>
        <r>  0.0006  0.0445  0.0008  0.0156  0.0000  0.0000  0.0000  0.0000  0.0000 </r>
        <r>  0.0004  0.0136  0.0001  0.0051  0.0000  0.0000  0.0000  0.0000  0.0000 </r>
       </set>
       <set comment="band 102">
        <r>  0.0048  0.0013  0.0005  0.0031  0.0036  0.0042  0.0003  0.0092  0.0052 </r>
        <r>  0.0056  0.0036  0.0192  0.0043  0.0027  0.0040  0.0012  0.0046  0.0029 </r>
        <r>  0.0059  0.0014  0.0202  0.0066  0.0020  0.0070  0.0011  0.0011  0.0036 </r>
        <r>  0.0021  0.0048  0.0071  0.0100  0.0014  0.0017  0.0012  0.0055  0.0018 </r>
        <r>  0.0223  0.0008  0.0230  0.0025  0.0028  0.0026  0.0007  0.0010  0.0010 </r>
        <r>  0.0048  0.0027  0.0025  0.0019  0.0012  0.0036  0.0012  0.0040  0.0022 </r>
        <r>  0.0048  0.0004  0.0026  0.0037  0.0030  0.0006  0.0012  0.0065  0.0006 </r>
        <r>  0.0000  0.0054  0.0083  0.0025  0.0015  0.0064  0.0081  0.0025  0.0023 </r>
        <r>  0.0076  0.0021  0.0047  0.0027  0.0018  0.0029  0.0035  0.0012  0.0001 </r>
        <r>  0.0041  0.0035  0.0023  0.0025  0.0008  0.0003  0.0039  0.0005  0.0005 </r>
        <r>  0.0061  0.0004  0.0068  0.0017  0.0011  0.0033  0.0008  0.0044  0.0003 </r>
        <r>  0.0072  0.0045  0.0045  0.0016  0.0005  0.0015  0.0039  0.0035  0.0012 </r>
        <r>  0.0054  0.0001  0.0001  0.0002  0.0029  0.0019  0.0009  0.0018  0.0021 </r>
        <r>  0.0113  0.0100  0.0034  0.0002  0.0014  0.0011  0.0055  0.0027  0.0050 </r>
        <r>  0.0138  0.0032  0.0036  0.0076  0.0033  0.0031  0.0064  0.0000  0.0020 </r>
        <r>  0.0034  0.0093  0.0002  0.0156  0.0002  0.0002  0.0000  0.0011  0.0002 </r>
        <r>  0.0109  0.0368  0.0060  0.0108  0.0000  0.0000  0.0000  0.0000  0.0000 </r>
        <r>  0.0003  0.0170  0.0020  0.0049  0.0000  0.0000  0.0000  0.0000  0.0000 </r>
       </set>
       <set comment="band 103">
        <r>  0.0070  0.0074  0.0003  0.0175  0.0053  0.0002  0.0032  0.0008  0.0078 </r>
        <r>  0.0119  0.0053  0.0085  0.0171  0.0060  0.0026  0.0007  0.0003  0.0076 </r>
        <r>  0.0117  0.0088  0.0080  0.0131  0.0050  0.0015  0.0006  0.0013  0.0088 </r>
        <r>  0.0069  0.0061  0.0008  0.0153  0.0076  0.0007  0.0026  0.0020  0.0097 </r>
        <r>  0.0003  0.0017  0.0055  0.0048  0.0015  0.0081  0.0022  0.0032  0.0036 </r>
        <r>  0.0018  0.0011  0.0047  0.0064  0.0017  0.0001  0.0001  0.0032  0.0016 </r>
        <r>  0.0022  0.0032  0.0051  0.0045  0.0002  0.0022  0.0001  0.0005  0.0026 </r>
        <r>  0.0003  0.0027  0.0407  0.0059  0.0009  0.0013  0.0000  0.0009  0.0020 </r>
        <r>  0.0011  0.0085  0.0068  0.0145  0.0024  0.0034  0.0020  0.0004  0.0101 </r>
        <r>  0.0107  0.0036  0.0012  0.0126  0.0036  0.0003  0.0002  0.0014  0.0076 </r>
        <r>  0.0022  0.0082  0.0009  0.0189  0.0022  0.0011  0.0000  0.0005  0.0084 </r>
        <r>  0.0003  0.0032  0.0070  0.0210  0.0049  0.0014  0.0025  0.0025  0.0081 </r>
        <r>  0.0003  0.0004  0.0043  0.0003  0.0004  0.0035  0.0026  0.0050  0.0014 </r>
        <r>  0.0077  0.0003  0.0014  0.0012  0.0003  0.0003  0.0001  0.0046  0.0005 </r>
        <r>  0.0103  0.0011  0.0013  0.0003  0.0004  0.0044  0.0002  0.0008  0.0003 </r>
        <r>  0.0002  0.0011  0.0100  0.0017  0.0012  0.0012  0.0008  0.0003  0.0007 </r>
        <r>  0.0086  0.0039  0.0048  0.0015  0.0000  0.0000  0.0000  0.0000  0.0000 </r>
        <r>  0.0000  0.0003  0.0015  0.0002  0.0000  0.0000  0.0000  0.0000  0.0000 </r>
       </set>
       <set comment="band 104">
        <r>  0.0052  0.0006  0.0122  0.0002  0.0006  0.0058  0.0000  0.0022  0.0002 </r>
        <r>  0.0012  0.0005  0.0007  0.0000  0.0006  0.0014  0.0006  0.0047  0.0004 </r>
        <r>  0.0013  0.0003  0.0011  0.0002  0.0009  0.0016  0.0006  0.0045  0.0001 </r>
        <r>  0.0010  0.0008  0.0290  0.0002  0.0011  0.0024  0.0001  0.0012  0.0005 </r>
        <r>  0.0040  0.0004  0.0009  0.0010  0.0003  0.0011  0.0000  0.0022  0.0008 </r>
        <r>  0.0007  0.0013  0.0162  0.0013  0.0001  0.0051  0.0011  0.0004  0.0012 </r>
        <r>  0.0005  0.0002  0.0175  0.0027  0.0005  0.0015  0.0007  0.0030  0.0008 </r>
        <r>  0.0004  0.0010  0.0040  0.0033  0.0005  0.0036  0.0000  0.0094  0.0011 </r>
        <r>  0.0069  0.0012  0.0122  0.0009  0.0030  0.0047  0.0028  0.0013  0.0015 </r>
        <r>  0.0070  0.0043  0.0235  0.0030  0.0020  0.0004  0.0011  0.0008  0.0004 </r>
        <r>  0.0110  0.0022  0.0007  0.0003  0.0044  0.0060  0.0000  0.0060  0.0019 </r>
        <r>  0.0054  0.0020  0.0147  0.0004  0.0049  0.0013  0.0031  0.0055  0.0007 </r>
        <r>  0.0144  0.0029  0.0242  0.0066  0.0030  0.0028  0.0001  0.0032  0.0023 </r>
        <r>  0.0061  0.0048  0.0017  0.0063  0.0026  0.0042  0.0027  0.0029  0.0037 </r>
        <r>  0.0059  0.0012  0.0023  0.0123  0.0038  0.0006  0.0030  0.0067  0.0036 </r>
        <r>  0.0165  0.0062  0.0170  0.0102  0.0035  0.0043  0.0012  0.0036  0.0071 </r>
        <r>  0.0031  0.0112  0.0014  0.0081  0.0000  0.0000  0.0000  0.0000  0.0000 </r>
        <r>  0.0001  0.0032  0.0009  0.0073  0.0000  0.0000  0.0000  0.0000  0.0000 </r>
       </set>
       <set comment="band 105">
        <r>  0.0120  0.0018  0.0127  0.0015  0.0028  0.0013  0.0001  0.0017  0.0015 </r>
        <r>  0.0076  0.0015  0.0052  0.0018  0.0027  0.0006  0.0013  0.0020  0.0008 </r>
        <r>  0.0077  0.0018  0.0053  0.0016  0.0020  0.0010  0.0013  0.0015  0.0013 </r>
        <r>  0.0101  0.0034  0.0048  0.0027  0.0023  0.0030  0.0011  0.0018  0.0009 </r>
        <r>  0.0015  0.0002  0.0001  0.0003  0.0012  0.0041  0.0000  0.0126  0.0006 </r>
        <r>  0.0013  0.0006  0.0123  0.0004  0.0010  0.0003  0.0006  0.0073  0.0002 </r>
        <r>  0.0011  0.0003  0.0108  0.0008  0.0002  0.0061  0.0007  0.0012  0.0008 </r>
        <r>  0.0051  0.0015  0.0013  0.0016  0.0001  0.0001  0.0000  0.0001  0.0002 </r>
        <r>  0.0134  0.0022  0.0014  0.0050  0.0064  0.0005  0.0028  0.0045  0.0012 </r>
        <r>  0.0126  0.0048  0.0050  0.0041  0.0049  0.0041  0.0015  0.0037  0.0022 </r>
        <r>  0.0345  0.0036  0.0138  0.0016  0.0044  0.0005  0.0002  0.0000  0.0021 </r>
        <r>  0.0119  0.0062  0.0019  0.0008  0.0055  0.0021  0.0025  0.0021  0.0042 </r>
        <r>  0.0033  0.0005  0.0001  0.0003  0.0010  0.0081  0.0010  0.0137  0.0011 </r>
        <r>  0.0005  0.0020  0.0069  0.0021  0.0008  0.0005  0.0023  0.0106  0.0004 </r>
        <r>  0.0007  0.0012  0.0082  0.0030  0.0002  0.0094  0.0028  0.0011  0.0018 </r>
        <r>  0.0005  0.0038  0.0211  0.0090  0.0004  0.0004  0.0008  0.0001  0.0001 </r>
        <r>  0.0003  0.0221  0.0001  0.0388  0.0000  0.0000  0.0000  0.0000  0.0000 </r>
        <r>  0.0001  0.0045  0.0001  0.0056  0.0000  0.0000  0.0000  0.0000  0.0000 </r>
       </set>
       <set comment="band 106">
        <r>  0.0054  0.0025  0.0029  0.0040  0.0002  0.0007  0.0006  0.0008  0.0012 </r>
        <r>  0.0020  0.0000  0.0068  0.0051  0.0005  0.0019  0.0008  0.0003  0.0009 </r>
        <r>  0.0036  0.0011  0.0126  0.0028  0.0004  0.0010  0.0019  0.0009  0.0015 </r>
        <r>  0.0021  0.0011  0.0006  0.0017  0.0006  0.0009  0.0007  0.0044  0.0014 </r>
        <r>  0.0141  0.0012  0.0214  0.0009  0.0018  0.0008  0.0011  0.0007  0.0008 </r>
        <r>  0.0048  0.0029  0.0012  0.0004  0.0015  0.0020  0.0011  0.0013  0.0013 </r>
        <r>  0.0034  0.0008  0.0029  0.0011  0.0025  0.0009  0.0013  0.0050  0.0006 </r>
        <r>  0.0026  0.0034  0.0024  0.0014  0.0026  0.0034  0.0011  0.0044  0.0010 </r>
        <r>  0.0169  0.0012  0.0040  0.0011  0.0017  0.0000  0.0032  0.0052  0.0004 </r>
        <r>  0.0131  0.0003  0.0023  0.0002  0.0021  0.0038  0.0014  0.0072  0.0017 </r>
        <r>  0.0078  0.0039  0.0077  0.0012  0.0006  0.0003  0.0024  0.0007  0.0002 </r>
        <r>  0.0051  0.0002  0.0073  0.0016  0.0015  0.0046  0.0019  0.0032  0.0011 </r>
        <r>  0.0133  0.0035  0.0007  0.0046  0.0043  0.0001  0.0004  0.0003  0.0022 </r>
        <r>  0.0002  0.0157  0.0095  0.0046  0.0035  0.0018  0.0003  0.0007  0.0075 </r>
        <r>  0.0039  0.0048  0.0050  0.0069  0.0065  0.0025  0.0040  0.0025  0.0027 </r>
        <r>  0.0002  0.0117  0.0064  0.0199  0.0046  0.0019  0.0008  0.0025  0.0026 </r>
        <r>  0.0032  0.0288  0.0017  0.0069  0.0000  0.0000  0.0000  0.0000  0.0000 </r>
        <r>  0.0005  0.0016  0.0001  0.0003  0.0000  0.0000  0.0000  0.0000  0.0000 </r>
       </set>
       <set comment="band 107">
        <r>  0.0018  0.0003  0.0031  0.0040  0.0008  0.0001  0.0060  0.0004  0.0007 </r>
        <r>  0.0128  0.0023  0.0047  0.0022  0.0005  0.0001  0.0033  0.0004  0.0012 </r>
        <r>  0.0111  0.0037  0.0001  0.0019  0.0002  0.0006  0.0020  0.0002  0.0008 </r>
        <r>  0.0011  0.0007  0.0001  0.0032  0.0007  0.0015  0.0054  0.0002  0.0010 </r>
        <r>  0.0033  0.0006  0.0019  0.0000  0.0018  0.0001  0.0070  0.0006  0.0003 </r>
        <r>  0.0161  0.0025  0.0032  0.0017  0.0014  0.0011  0.0043  0.0017  0.0002 </r>
        <r>  0.0173  0.0049  0.0012  0.0011  0.0007  0.0004  0.0032  0.0010  0.0003 </r>
        <r>  0.0015  0.0013  0.0004  0.0000  0.0017  0.0017  0.0060  0.0012  0.0008 </r>
        <r>  0.0135  0.0033  0.0040  0.0008  0.0004  0.0006  0.0036  0.0020  0.0001 </r>
        <r>  0.0051  0.0001  0.0010  0.0004  0.0010  0.0009  0.0081  0.0013  0.0003 </r>
        <r>  0.0028  0.0008  0.0014  0.0009  0.0006  0.0003  0.0051  0.0010  0.0003 </r>
        <r>  0.0190  0.0026  0.0008  0.0005  0.0004  0.0019  0.0058  0.0007  0.0002 </r>
        <r>  0.0023  0.0033  0.0016  0.0012  0.0009  0.0007  0.0044  0.0001  0.0004 </r>
        <r>  0.0123  0.0016  0.0004  0.0022  0.0011  0.0019  0.0044  0.0002  0.0009 </r>
        <r>  0.0090  0.0045  0.0040  0.0037  0.0014  0.0001  0.0020  0.0000  0.0007 </r>
        <r>  0.0007  0.0039  0.0061  0.0022  0.0018  0.0001  0.0040  0.0011  0.0009 </r>
        <r>  0.0023  0.0030  0.0002  0.0014  0.0000  0.0000  0.0000  0.0000  0.0000 </r>
        <r>  0.0034  0.0036  0.0007  0.0015  0.0000  0.0000  0.0000  0.0000  0.0000 </r>
       </set>
       <set comment="band 108">
        <r>  0.0150  0.0072  0.0085  0.0054  0.0041  0.0010  0.0006  0.0008  0.0027 </r>
        <r>  0.0108  0.0032  0.0001  0.0071  0.0045  0.0001  0.0015  0.0015  0.0021 </r>
        <r>  0.0110  0.0044  0.0032  0.0055  0.0039  0.0005  0.0008  0.0007  0.0028 </r>
        <r>  0.0208  0.0055  0.0007  0.0062  0.0052  0.0009  0.0002  0.0004  0.0035 </r>
        <r>  0.0016  0.0020  0.0041  0.0030  0.0004  0.0017  0.0014  0.0015  0.0017 </r>
        <r>  0.0041  0.0003  0.0033  0.0045  0.0007  0.0006  0.0002  0.0032  0.0008 </r>
        <r>  0.0039  0.0013  0.0003  0.0034  0.0003  0.0008  0.0002  0.0042  0.0014 </r>
        <r>  0.0076  0.0006  0.0022  0.0039  0.0006  0.0028  0.0006  0.0046  0.0009 </r>
        <r>  0.0041  0.0025  0.0087  0.0006  0.0003  0.0002  0.0028  0.0002  0.0004 </r>
        <r>  0.0004  0.0024  0.0101  0.0004  0.0004  0.0005  0.0004  0.0010  0.0002 </r>
        <r>  0.0020  0.0018  0.0102  0.0020  0.0007  0.0004  0.0007  0.0003  0.0002 </r>
        <r>  0.0003  0.0021  0.0070  0.0022  0.0011  0.0004  0.0015  0.0005  0.0001 </r>
        <r>  0.0044  0.0017  0.0007  0.0024  0.0075  0.0020  0.0029  0.0064  0.0032 </r>
        <r>  0.0015  0.0049  0.0004  0.0058  0.0035  0.0003  0.0003  0.0024  0.0009 </r>
        <r>  0.0046  0.0032  0.0013  0.0083  0.0019  0.0007  0.0012  0.0013  0.0030 </r>
        <r>  0.0007  0.0160  0.0008  0.0081  0.0016  0.0007  0.0006  0.0018  0.0036 </r>
        <r>  0.0092  0.0028  0.0046  0.0165  0.0000  0.0000  0.0000  0.0000  0.0000 </r>
        <r>  0.0010  0.0000  0.0012  0.0035  0.0000  0.0000  0.0000  0.0000  0.0000 </r>
       </set>
       <set comment="band 109">
        <r>  0.0029  0.0022  0.0018  0.0008  0.0019  0.0002  0.0003  0.0009  0.0004 </r>
        <r>  0.0030  0.0029  0.0071  0.0008  0.0017  0.0003  0.0001  0.0001  0.0004 </r>
        <r>  0.0037  0.0029  0.0025  0.0004  0.0015  0.0007  0.0006  0.0001  0.0006 </r>
        <r>  0.0038  0.0022  0.0019  0.0010  0.0023  0.0004  0.0001  0.0003  0.0004 </r>
        <r>  0.0010  0.0012  0.0026  0.0003  0.0009  0.0002  0.0003  0.0011  0.0001 </r>
        <r>  0.0005  0.0019  0.0020  0.0002  0.0009  0.0012  0.0007  0.0002  0.0000 </r>
        <r>  0.0009  0.0028  0.0033  0.0007  0.0004  0.0011  0.0004  0.0001  0.0000 </r>
        <r>  0.0023  0.0015  0.0037  0.0004  0.0008  0.0000  0.0001  0.0014  0.0000 </r>
        <r>  0.0027  0.0003  0.0027  0.0003  0.0004  0.0007  0.0001  0.0002  0.0005 </r>
        <r>  0.0008  0.0020  0.0032  0.0009  0.0002  0.0007  0.0021  0.0000  0.0002 </r>
        <r>  0.0006  0.0011  0.0020  0.0026  0.0002  0.0001  0.0025  0.0001  0.0003 </r>
        <r>  0.0060  0.0005  0.0049  0.0009  0.0003  0.0001  0.0023  0.0001  0.0003 </r>
        <r>  0.0021  0.0004  0.0004  0.0004  0.0027  0.0010  0.0016  0.0007  0.0016 </r>
        <r>  0.0048  0.0049  0.0007  0.0007  0.0014  0.0002  0.0033  0.0002  0.0001 </r>
        <r>  0.0005  0.0055  0.0000  0.0015  0.0013  0.0004  0.0021  0.0005  0.0006 </r>
        <r>  0.0047  0.0041  0.0008  0.0017  0.0016  0.0003  0.0029  0.0005  0.0003 </r>
        <r>  0.0018  0.0045  0.0010  0.0025  0.0000  0.0000  0.0000  0.0000  0.0000 </r>
        <r>  0.0051  0.0067  0.0002  0.0008  0.0000  0.0000  0.0000  0.0000  0.0000 </r>
       </set>
       <set comment="band 110">
        <r>  0.0022  0.0062  0.0011  0.0025  0.0040  0.0007  0.0014  0.0006  0.0017 </r>
        <r>  0.0041  0.0113  0.0052  0.0029  0.0042  0.0008  0.0016  0.0001  0.0014 </r>
        <r>  0.0030  0.0086  0.0051  0.0053  0.0038  0.0006  0.0017  0.0003  0.0017 </r>
        <r>  0.0028  0.0115  0.0041  0.0048  0.0048  0.0014  0.0008  0.0004  0.0019 </r>
        <r>  0.0156  0.0213  0.0014  0.0071  0.0094  0.0002  0.0005  0.0002  0.0033 </r>
        <r>  0.0078  0.0198  0.0000  0.0108  0.0120  0.0001  0.0044  0.0003  0.0025 </r>
        <r>  0.0092  0.0291  0.0001  0.0076  0.0080  0.0003  0.0026  0.0002  0.0050 </r>
        <r>  0.0021  0.0200  0.0010  0.0088  0.0122  0.0003  0.0069  0.0001  0.0048 </r>
        <r>  0.0111  0.0113  0.0014  0.0012  0.0045  0.0005  0.0018  0.0001  0.0015 </r>
        <r>  0.0051  0.0082  0.0006  0.0021  0.0069  0.0007  0.0074  0.0001  0.0020 </r>
        <r>  0.0127  0.0193  0.0011  0.0087  0.0031  0.0006  0.0002  0.0003  0.0016 </r>
        <r>  0.0070  0.0098  0.0016  0.0087  0.0055  0.0004  0.0026  0.0002  0.0021 </r>
        <r>  0.0017  0.0020  0.0000  0.0009  0.0002  0.0004  0.0003  0.0006  0.0001 </r>
        <r>  0.0010  0.0030  0.0003  0.0005  0.0006  0.0014  0.0020  0.0008  0.0003 </r>
        <r>  0.0024  0.0033  0.0002  0.0014  0.0010  0.0017  0.0018  0.0007  0.0003 </r>
        <r>  0.0000  0.0014  0.0021  0.0027  0.0011  0.0010  0.0005  0.0003  0.0002 </r>
        <r>  0.0016  0.0030  0.0011  0.0008  0.0000  0.0000  0.0000  0.0000  0.0000 </r>
        <r>  0.0001  0.0031  0.0014  0.0009  0.0000  0.0000  0.0000  0.0000  0.0000 </r>
       </set>
       <set comment="band 111">
        <r>  0.0353  0.0039  0.0001  0.0021  0.0023  0.0002  0.0000  0.0001  0.0008 </r>
        <r>  0.0174  0.0010  0.0069  0.0013  0.0024  0.0012  0.0023  0.0005  0.0012 </r>
        <r>  0.0171  0.0025  0.0077  0.0002  0.0029  0.0012  0.0024  0.0004  0.0006 </r>
        <r>  0.0202  0.0022  0.0013  0.0008  0.0039  0.0004  0.0002  0.0008  0.0013 </r>
        <r>  0.0004  0.0015  0.0000  0.0041  0.0004  0.0002  0.0069  0.0008  0.0007 </r>
        <r>  0.0129  0.0032  0.0041  0.0040  0.0004  0.0004  0.0001  0.0008  0.0013 </r>
        <r>  0.0120  0.0008  0.0040  0.0054  0.0007  0.0002  0.0001  0.0007  0.0009 </r>
        <r>  0.0055  0.0061  0.0033  0.0057  0.0007  0.0009  0.0004  0.0020  0.0015 </r>
        <r>  0.0004  0.0051  0.0003  0.0041  0.0026  0.0016  0.0044  0.0040  0.0006 </r>
        <r>  0.0102  0.0069  0.0001  0.0035  0.0027  0.0011  0.0006  0.0031  0.0008 </r>
        <r>  0.0018  0.0024  0.0023  0.0013  0.0032  0.0012  0.0003  0.0032  0.0012 </r>
        <r>  0.0003  0.0118  0.0003  0.0015  0.0028  0.0018  0.0045  0.0058  0.0013 </r>
        <r>  0.0100  0.0018  0.0000  0.0034  0.0001  0.0001  0.0029  0.0001  0.0000 </r>
        <r>  0.0236  0.0005  0.0046  0.0018  0.0000  0.0005  0.0006  0.0001  0.0008 </r>
        <r>  0.0261  0.0008  0.0029  0.0018  0.0003  0.0002  0.0008  0.0001  0.0002 </r>
        <r>  0.0094  0.0007  0.0007  0.0006  0.0010  0.0003  0.0009  0.0002  0.0019 </r>
        <r>  0.0027  0.0011  0.0019  0.0022  0.0000  0.0000  0.0000  0.0000  0.0000 </r>
        <r>  0.0001  0.0010  0.0029  0.0005  0.0000  0.0000  0.0000  0.0000  0.0000 </r>
       </set>
      </set>
     </set>
    </set>
   </array>
  </projected>
 </calculation>
 <structure name="finalpos" >
  <crystal>
   <varray name="basis" >
    <v>       5.27855212       0.00000000       0.00000000 </v>
    <v>       2.63927606       4.57136023       0.00000000 </v>
    <v>       0.00000000       0.00000000      30.46487964 </v>
   </varray>
   <i name="volume">    735.12251919 </i>
   <varray name="rec_basis" >
    <v>       0.18944589      -0.10937664       0.00000000 </v>
    <v>       0.00000000       0.21875327       0.00000000 </v>
    <v>       0.00000000       0.00000000       0.03282468 </v>
   </varray>
  </crystal>
  <varray name="positions" >
   <v>       0.00000000       0.00000000       0.39389619 </v>
   <v>       0.50000000       0.00000000       0.39389619 </v>
   <v>       0.00000000       0.50000000       0.39389619 </v>
   <v>       0.50000000       0.50000000       0.39389619 </v>
   <v>       0.16666667       0.16666667       0.46463206 </v>
   <v>       0.66666667       0.16666667       0.46463206 </v>
   <v>       0.16666667       0.66666667       0.46463206 </v>
   <v>       0.66666667       0.66666667       0.46463206 </v>
   <v>       0.82684494       0.33036268       0.53735779 </v>
   <v>       0.32719460       0.33400457       0.53431452 </v>
   <v>       0.82653506       0.83754774       0.54082097 </v>
   <v>       0.32239561       0.83712733       0.53915108 </v>
   <v>       0.99407654       0.99625784       0.61263381 </v>
   <v>       0.50504450       0.99745063       0.61173562 </v>
   <v>       0.00354300       0.49185588       0.60763579 </v>
   <v>       0.50154019       0.49467577       0.61778350 </v>
   <v>       0.16988580       0.16535577       0.65708563 </v>
   <v>       0.16212276       0.17767948       0.69609102 </v>
  </varray>
  <varray name="selective"  type="logical" >
   <v type="logical" >  F  F  F </v>
   <v type="logical" >  F  F  F </v>
   <v type="logical" >  F  F  F </v>
   <v type="logical" >  F  F  F </v>
   <v type="logical" >  F  F  F </v>
   <v type="logical" >  F  F  F </v>
   <v type="logical" >  F  F  F </v>
   <v type="logical" >  F  F  F </v>
   <v type="logical" >  T  T  T </v>
   <v type="logical" >  T  T  T </v>
   <v type="logical" >  T  T  T </v>
   <v type="logical" >  T  T  T </v>
   <v type="logical" >  T  T  T </v>
   <v type="logical" >  T  T  T </v>
   <v type="logical" >  T  T  T </v>
   <v type="logical" >  T  T  T </v>
   <v type="logical" >  T  T  T </v>
   <v type="logical" >  T  T  T </v>
  </varray>
  <nose>
   <v>      -3.00000000       0.00000000       0.00010000       0.00010000 </v>
  </nose>
 </structure>
</modeling>
