Cu-Ag alloy CO adsorption (RPBE, matches
            1
     5.278552    0.000000    0.000000
     2.639276    4.571360    0.000000
     0.000000    0.000000   30.464880
   Cu   Ag   Cu   Ag   Cu   Ag   Cu   Ag   C    O 
     3     1     3     1     3     1     3     1     1     1
Direct configuration=     1
   0.00000000  0.00000000  0.39389619
   0.50000000  0.00000000  0.39389619
   0.00000000  0.50000000  0.39389619
   0.50000000  0.50000000  0.39389619
   0.16666667  0.16666667  0.46463206
   0.66666667  0.16666667  0.46463206
   0.16666667  0.66666667  0.46463206
   0.66666667  0.66666667  0.46463206
   0.83333333  0.33333333  0.53536794
   0.33333333  0.33333333  0.53536794
   0.83333333  0.83333333  0.53536794
   0.33333333  0.83333333  0.53536794
   0.00000000  0.00000000  0.60610381
   0.50000000  0.00000000  0.60610381
   0.00000000  0.50000000  0.60610381
   0.50000000  0.50000000  0.60610381
   0.16666667  0.16666667  0.66518824
   0.16666667  0.16666667  0.70228013
Direct configuration=     2
   0.00000000  0.00000000  0.39389619
   0.50000000  0.00000000  0.39389619
   0.00000000  0.50000000  0.39389619
   0.50000000  0.50000000  0.39389619
   0.16666667  0.16666667  0.46463206
   0.66666667  0.16666667  0.46463206
   0.16666667  0.66666667  0.46463206
   0.66666667  0.66666667  0.46463206
   0.83727943  0.32947650  0.53517702
   0.33199803  0.33198974  0.53463124
   0.83454293  0.83464407  0.53602358
   0.32677500  0.84007573  0.53517397
   0.99792938  0.00162892  0.60692166
   0.50042351  0.00164454  0.60693912
   0.00038135  0.49922981  0.60640450
   0.50214963  0.49574017  0.60801510
   0.16676274  0.16635837  0.65676114
   0.16662051  0.16680026  0.70928948
Direct configuration=     3
   0.00000000  0.00000000  0.39389619
   0.50000000  0.00000000  0.39389619
   0.00000000  0.50000000  0.39389619
   0.50000000  0.50000000  0.39389619
   0.16666667  0.16666667  0.46463206
   0.66666667  0.16666667  0.46463206
   0.16666667  0.66666667  0.46463206
   0.66666667  0.66666667  0.46463206
   0.83489550  0.33180651  0.53529236
   0.33280472  0.33280144  0.53507630
   0.83381218  0.83385222  0.53562749
   0.33073705  0.83600249  0.53529115
   0.99918029  0.00064485  0.60642758
   0.50016766  0.00065103  0.60643449
   0.00015097  0.49969510  0.60622285
   0.50085099  0.49831364  0.60686044
   0.16670470  0.16654462  0.66185215
   0.16664840  0.16671955  0.70505496
Direct configuration=     4
   0.00000000  0.00000000  0.39389619
   0.50000000  0.00000000  0.39389619
   0.00000000  0.50000000  0.39389619
   0.50000000  0.50000000  0.39389619
   0.16666667  0.16666667  0.46463206
   0.66666667  0.16666667  0.46463206
   0.16666667  0.66666667  0.46463206
   0.66666667  0.66666667  0.46463206
   0.83401242  0.33266961  0.53533508
   0.33310354  0.33310212  0.53524116
   0.83354149  0.83355890  0.53548077
   0.33220471  0.83449363  0.53533456
   0.99964367  0.00028032  0.60624455
   0.50007288  0.00028301  0.60624756
   0.00006563  0.49986746  0.60615556
   0.50036993  0.49926693  0.60643272
   0.16668320  0.16661361  0.66373802
   0.16665872  0.16668966  0.70348637
Direct configuration=     5
   0.00000000  0.00000000  0.39389619
   0.50000000  0.00000000  0.39389619
   0.00000000  0.50000000  0.39389619
   0.50000000  0.50000000  0.39389619
   0.16666667  0.16666667  0.46463206
   0.66666667  0.16666667  0.46463206
   0.16666667  0.66666667  0.46463206
   0.66666667  0.66666667  0.46463206
   0.83381233  0.33286518  0.53534476
   0.33317125  0.33317024  0.53527851
   0.83348016  0.83349244  0.53544752
   0.33253726  0.83415175  0.53534439
   0.99974866  0.00019772  0.60620308
   0.50005141  0.00019962  0.60620520
   0.00004629  0.49990651  0.60614031
   0.50026093  0.49948293  0.60633581
   0.16667833  0.16662924  0.66416532
   0.16666106  0.16668288  0.70313095
Direct configuration=     6
   0.00000000  0.00000000  0.39389619
   0.50000000  0.00000000  0.39389619
   0.00000000  0.50000000  0.39389619
   0.50000000  0.50000000  0.39389619
   0.16666667  0.16666667  0.46463206
   0.66666667  0.16666667  0.46463206
   0.16666667  0.66666667  0.46463206
   0.66666667  0.66666667  0.46463206
   0.83376538  0.33291106  0.53534703
   0.33318714  0.33318623  0.53528728
   0.83346577  0.83347684  0.53543972
   0.33261529  0.83407153  0.53534670
   0.99977330  0.00017834  0.60619335
   0.50004637  0.00018005  0.60619527
   0.00004175  0.49991568  0.60613673
   0.50023535  0.49953361  0.60631307
   0.16667719  0.16663291  0.66426559
   0.16666161  0.16668129  0.70304756
Direct configuration=     7
   0.00000000  0.00000000  0.39389619
   0.50000000  0.00000000  0.39389619
   0.00000000  0.50000000  0.39389619
   0.50000000  0.50000000  0.39389619
   0.16666667  0.16666667  0.46463206
   0.66666667  0.16666667  0.46463206
   0.16666667  0.66666667  0.46463206
   0.66666667  0.66666667  0.46463206
   0.83682927  0.32986883  0.53519806
   0.33211976  0.33219275  0.53466811
   0.83440399  0.83457443  0.53602791
   0.32734563  0.83939470  0.53523878
   0.99827756  0.00166403  0.60698685
   0.50002670  0.00168002  0.60699425
   0.00054576  0.49891278  0.60647148
   0.50197051  0.49608757  0.60791815
   0.16676600  0.16635474  0.66352201
   0.16661793  0.16680285  0.70229419
Direct configuration=     8
   0.00000000  0.00000000  0.39389619
   0.50000000  0.00000000  0.39389619
   0.00000000  0.50000000  0.39389619
   0.50000000  0.50000000  0.39389619
   0.16666667  0.16666667  0.46463206
   0.66666667  0.16666667  0.46463206
   0.16666667  0.66666667  0.46463206
   0.66666667  0.66666667  0.46463206
   0.84257687  0.32416186  0.53491861
   0.33011746  0.33032908  0.53350660
   0.83616402  0.83663341  0.53713131
   0.31746022  0.84938050  0.53503634
   0.99547168  0.00445105  0.60847539
   0.49998981  0.00449383  0.60849307
   0.00149123  0.49703144  0.60709944
   0.50522551  0.48962311  0.61092913
   0.16693262  0.16583291  0.66212713
   0.16653598  0.16703089  0.70088093
Direct configuration=     9
   0.00000000  0.00000000  0.39389619
   0.50000000  0.00000000  0.39389619
   0.00000000  0.50000000  0.39389619
   0.50000000  0.50000000  0.39389619
   0.16666667  0.16666667  0.46463206
   0.66666667  0.16666667  0.46463206
   0.16666667  0.66666667  0.46463206
   0.66666667  0.66666667  0.46463206
   0.83908704  0.32707822  0.53505551
   0.33009604  0.33229140  0.53301519
   0.83459586  0.83717446  0.53810384
   0.31957347  0.84599259  0.53597583
   0.99654359  0.00389128  0.60980476
   0.49930124  0.00382895  0.60963527
   0.00205201  0.49604760  0.60755543
   0.50447226  0.49107597  0.61255937
   0.16745670  0.16475878  0.66057744
   0.16634513  0.16745741  0.69971196
Direct configuration=    10
   0.00000000  0.00000000  0.39389619
   0.50000000  0.00000000  0.39389619
   0.00000000  0.50000000  0.39389619
   0.50000000  0.50000000  0.39389619
   0.16666667  0.16666667  0.46463206
   0.66666667  0.16666667  0.46463206
   0.16666667  0.66666667  0.46463206
   0.66666667  0.66666667  0.46463206
   0.83175208  0.33320786  0.53534324
   0.33005102  0.33641584  0.53198233
   0.83129988  0.83831165  0.54014792
   0.32401513  0.83887182  0.53795047
   0.99879653  0.00271474  0.61259884
   0.49785399  0.00243149  0.61203595
   0.00323066  0.49397975  0.60851383
   0.50288906  0.49412962  0.61598582
   0.16855824  0.16250115  0.65732029
   0.16594401  0.16835389  0.69725501
Direct configuration=    11
   0.00000000  0.00000000  0.39389619
   0.50000000  0.00000000  0.39389619
   0.00000000  0.50000000  0.39389619
   0.50000000  0.50000000  0.39389619
   0.16666667  0.16666667  0.46463206
   0.66666667  0.16666667  0.46463206
   0.16666667  0.66666667  0.46463206
   0.66666667  0.66666667  0.46463206
   0.83335463  0.33186865  0.53528038
   0.33006086  0.33551473  0.53220799
   0.83201999  0.83806320  0.53970133
   0.32304471  0.84042757  0.53751905
   0.99830431  0.00297179  0.61198839
   0.49817019  0.00273681  0.61151145
   0.00297314  0.49443154  0.60830444
   0.50323496  0.49346246  0.61523720
   0.16831757  0.16299440  0.65803191
   0.16603165  0.16815803  0.69779181
Direct configuration=    12
   0.00000000  0.00000000  0.39389619
   0.50000000  0.00000000  0.39389619
   0.00000000  0.50000000  0.39389619
   0.50000000  0.50000000  0.39389619
   0.16666667  0.16666667  0.46463206
   0.66666667  0.16666667  0.46463206
   0.16666667  0.66666667  0.46463206
   0.66666667  0.66666667  0.46463206
   0.83153895  0.33328716  0.53543469
   0.33008120  0.33638625  0.53206888
   0.83098511  0.83838679  0.54022211
   0.32434844  0.83867924  0.53806810
   0.99872072  0.00239039  0.61262295
   0.49817745  0.00217146  0.61204883
   0.00317271  0.49415931  0.60849570
   0.50270258  0.49441657  0.61600610
   0.16856870  0.16257605  0.65784599
   0.16592465  0.16838026  0.69660407
Direct configuration=    13
   0.00000000  0.00000000  0.39389619
   0.50000000  0.00000000  0.39389619
   0.00000000  0.50000000  0.39389619
   0.50000000  0.50000000  0.39389619
   0.16666667  0.16666667  0.46463206
   0.66666667  0.16666667  0.46463206
   0.16666667  0.66666667  0.46463206
   0.66666667  0.66666667  0.46463206
   0.83194566  0.33296942  0.53540012
   0.33007665  0.33619103  0.53210004
   0.83121692  0.83831431  0.54010546
   0.32405641  0.83907086  0.53794511
   0.99862745  0.00252062  0.61248081
   0.49817583  0.00229810  0.61192846
   0.00312801  0.49422029  0.60845286
   0.50282183  0.49420286  0.61583387
   0.16851245  0.16266976  0.65788764
   0.16594862  0.16833048  0.69687012
Direct configuration=    14
   0.00000000  0.00000000  0.39389619
   0.50000000  0.00000000  0.39389619
   0.00000000  0.50000000  0.39389619
   0.50000000  0.50000000  0.39389619
   0.16666667  0.16666667  0.46463206
   0.66666667  0.16666667  0.46463206
   0.16666667  0.66666667  0.46463206
   0.66666667  0.66666667  0.46463206
   0.83184818  0.33293371  0.53549434
   0.33007293  0.33610616  0.53218731
   0.83093249  0.83841473  0.54018456
   0.32422799  0.83904654  0.53805858
   0.99844865  0.00217994  0.61249368
   0.49861167  0.00202694  0.61193232
   0.00304723  0.49444590  0.60842402
   0.50267131  0.49441340  0.61586952
   0.16855952  0.16268507  0.65783843
   0.16589456  0.16844070  0.69682700
Direct configuration=    15
   0.00000000  0.00000000  0.39389619
   0.50000000  0.00000000  0.39389619
   0.00000000  0.50000000  0.39389619
   0.50000000  0.50000000  0.39389619
   0.16666667  0.16666667  0.46463206
   0.66666667  0.16666667  0.46463206
   0.16666667  0.66666667  0.46463206
   0.66666667  0.66666667  0.46463206
   0.83155577  0.33282656  0.53577697
   0.33006179  0.33585153  0.53244911
   0.83007919  0.83871599  0.54042185
   0.32474272  0.83897361  0.53839896
   0.99791224  0.00115791  0.61253228
   0.49991919  0.00121346  0.61194391
   0.00280490  0.49512273  0.60833751
   0.50221975  0.49504502  0.61597648
   0.16870072  0.16273099  0.65769081
   0.16573240  0.16877136  0.69669764
Direct configuration=    16
   0.00000000  0.00000000  0.39389619
   0.50000000  0.00000000  0.39389619
   0.00000000  0.50000000  0.39389619
   0.50000000  0.50000000  0.39389619
   0.16666667  0.16666667  0.46463206
   0.66666667  0.16666667  0.46463206
   0.16666667  0.66666667  0.46463206
   0.66666667  0.66666667  0.46463206
   0.83097094  0.33261226  0.53634224
   0.33003952  0.33534229  0.53297270
   0.82837258  0.83931852  0.54089645
   0.32577219  0.83882773  0.53907973
   0.99683942  0.99911385  0.61260948
   0.50253423  0.99958650  0.61196708
   0.00232025  0.49647639  0.60816449
   0.50131664  0.49630826  0.61619040
   0.16898312  0.16282284  0.65739558
   0.16540807  0.16943268  0.69643892
Direct configuration=    17
   0.00000000  0.00000000  0.39389619
   0.50000000  0.00000000  0.39389619
   0.00000000  0.50000000  0.39389619
   0.50000000  0.50000000  0.39389619
   0.16666667  0.16666667  0.46463206
   0.66666667  0.16666667  0.46463206
   0.16666667  0.66666667  0.46463206
   0.66666667  0.66666667  0.46463206
   0.83071547  0.33251865  0.53658917
   0.33002978  0.33511984  0.53320142
   0.82762710  0.83958171  0.54110376
   0.32622189  0.83876401  0.53937711
   0.99637080  0.99822096  0.61264321
   0.50367654  0.99887581  0.61197721
   0.00210854  0.49706770  0.60808891
   0.50092214  0.49686007  0.61628384
   0.16910648  0.16286296  0.65726662
   0.16526639  0.16972156  0.69632591
Direct configuration=    18
   0.00000000  0.00000000  0.39389619
   0.50000000  0.00000000  0.39389619
   0.00000000  0.50000000  0.39389619
   0.50000000  0.50000000  0.39389619
   0.16666667  0.16666667  0.46463206
   0.66666667  0.16666667  0.46463206
   0.16666667  0.66666667  0.46463206
   0.66666667  0.66666667  0.46463206
   0.83086369  0.33199540  0.53674400
   0.32978429  0.33519457  0.53339313
   0.82778525  0.83971221  0.54115232
   0.32564328  0.83878471  0.53934328
   0.99557168  0.99828422  0.61265184
   0.50420596  0.99904445  0.61199689
   0.00222311  0.49676320  0.60803687
   0.50124561  0.49621603  0.61637130
   0.16917535  0.16305950  0.65729554
   0.16509635  0.17009134  0.69621301
Direct configuration=    19
   0.00000000  0.00000000  0.39389619
   0.50000000  0.00000000  0.39389619
   0.00000000  0.50000000  0.39389619
   0.50000000  0.50000000  0.39389619
   0.16666667  0.16666667  0.46463206
   0.66666667  0.16666667  0.46463206
   0.16666667  0.66666667  0.46463206
   0.66666667  0.66666667  0.46463206
   0.83091230  0.33182377  0.53679479
   0.32970376  0.33521908  0.53345601
   0.82783712  0.83975502  0.54116825
   0.32545349  0.83879150  0.53933219
   0.99530957  0.99830496  0.61265468
   0.50437961  0.99909976  0.61200335
   0.00226069  0.49666332  0.60801980
   0.50135171  0.49600479  0.61639999
   0.16919794  0.16312397  0.65730502
   0.16504058  0.17021263  0.69617598
Direct configuration=    20
   0.00000000  0.00000000  0.39389619
   0.50000000  0.00000000  0.39389619
   0.00000000  0.50000000  0.39389619
   0.50000000  0.50000000  0.39389619
   0.16666667  0.16666667  0.46463206
   0.66666667  0.16666667  0.46463206
   0.16666667  0.66666667  0.46463206
   0.66666667  0.66666667  0.46463206
   0.83095006  0.33168035  0.53683622
   0.32963060  0.33524183  0.53350898
   0.82788746  0.83978537  0.54117837
   0.32528770  0.83879027  0.53931751
   0.99509587  0.99832948  0.61265709
   0.50450999  0.99915082  0.61200870
   0.00229973  0.49655784  0.60800553
   0.50144499  0.49582861  0.61642521
   0.16922132  0.16317434  0.65728183
   0.16498658  0.17032878  0.69617804
Direct configuration=    21
   0.00000000  0.00000000  0.39389619
   0.50000000  0.00000000  0.39389619
   0.00000000  0.50000000  0.39389619
   0.50000000  0.50000000  0.39389619
   0.16666667  0.16666667  0.46463206
   0.66666667  0.16666667  0.46463206
   0.16666667  0.66666667  0.46463206
   0.66666667  0.66666667  0.46463206
   0.83106334  0.33125010  0.53696050
   0.32941111  0.33531008  0.53366789
   0.82803851  0.83987642  0.54120874
   0.32479033  0.83878658  0.53927347
   0.99445479  0.99840303  0.61266431
   0.50490112  0.99930397  0.61202476
   0.00241686  0.49624142  0.60796273
   0.50172486  0.49530006  0.61650088
   0.16929146  0.16332544  0.65721226
   0.16482459  0.17067723  0.69618419
Direct configuration=    22
   0.00000000  0.00000000  0.39389619
   0.50000000  0.00000000  0.39389619
   0.00000000  0.50000000  0.39389619
   0.50000000  0.50000000  0.39389619
   0.16666667  0.16666667  0.46463206
   0.66666667  0.16666667  0.46463206
   0.16666667  0.66666667  0.46463206
   0.66666667  0.66666667  0.46463206
   0.83128989  0.33038959  0.53720907
   0.32897213  0.33544659  0.53398571
   0.82834060  0.84005852  0.54126947
   0.32379558  0.83877919  0.53918540
   0.99317263  0.99855014  0.61267877
   0.50568338  0.99961029  0.61205688
   0.00265111  0.49560857  0.60787711
   0.50228458  0.49424296  0.61665221
   0.16943174  0.16362765  0.65707313
   0.16450059  0.17137413  0.69619650
Direct configuration=    23
   0.00000000  0.00000000  0.39389619
   0.50000000  0.00000000  0.39389619
   0.00000000  0.50000000  0.39389619
   0.50000000  0.50000000  0.39389619
   0.16666667  0.16666667  0.46463206
   0.66666667  0.16666667  0.46463206
   0.16666667  0.66666667  0.46463206
   0.66666667  0.66666667  0.46463206
   0.83116219  0.33087465  0.53706895
   0.32921957  0.33536964  0.53380656
   0.82817031  0.83995587  0.54123523
   0.32435631  0.83878335  0.53923504
   0.99389536  0.99846722  0.61267062
   0.50524244  0.99943763  0.61203877
   0.00251906  0.49596530  0.60792537
   0.50196908  0.49483883  0.61656690
   0.16935267  0.16345730  0.65715156
   0.16468322  0.17098130  0.69618956
Direct configuration=    24
   0.00000000  0.00000000  0.39389619
   0.50000000  0.00000000  0.39389619
   0.00000000  0.50000000  0.39389619
   0.50000000  0.50000000  0.39389619
   0.16666667  0.16666667  0.46463206
   0.66666667  0.16666667  0.46463206
   0.16666667  0.66666667  0.46463206
   0.66666667  0.66666667  0.46463206
   0.83112850  0.33087639  0.53707632
   0.32919392  0.33536548  0.53381970
   0.82815709  0.83994205  0.54123079
   0.32435619  0.83875904  0.53922572
   0.99390732  0.99844771  0.61267311
   0.50522879  0.99941624  0.61203920
   0.00254548  0.49589123  0.60792280
   0.50195947  0.49487259  0.61657853
   0.16936198  0.16347468  0.65714889
   0.16466030  0.17103467  0.69618644
Direct configuration=    25
   0.00000000  0.00000000  0.39389619
   0.50000000  0.00000000  0.39389619
   0.00000000  0.50000000  0.39389619
   0.50000000  0.50000000  0.39389619
   0.16666667  0.16666667  0.46463206
   0.66666667  0.16666667  0.46463206
   0.16666667  0.66666667  0.46463206
   0.66666667  0.66666667  0.46463206
   0.83102746  0.33088163  0.53709843
   0.32911698  0.33535300  0.53385910
   0.82811741  0.83990059  0.54121744
   0.32435586  0.83868609  0.53919776
   0.99394320  0.99838920  0.61268058
   0.50518785  0.99935206  0.61204049
   0.00262471  0.49566903  0.60791508
   0.50193064  0.49497390  0.61661339
   0.16938990  0.16352680  0.65714089
   0.16459154  0.17119476  0.69617710
Direct configuration=    26
   0.00000000  0.00000000  0.39389619
   0.50000000  0.00000000  0.39389619
   0.00000000  0.50000000  0.39389619
   0.50000000  0.50000000  0.39389619
   0.16666667  0.16666667  0.46463206
   0.66666667  0.16666667  0.46463206
   0.16666667  0.66666667  0.46463206
   0.66666667  0.66666667  0.46463206
   0.83082538  0.33089210  0.53714265
   0.32896308  0.33532803  0.53393791
   0.82803806  0.83981766  0.54119075
   0.32435519  0.83854018  0.53914183
   0.99401497  0.99827218  0.61269551
   0.50510596  0.99922372  0.61204307
   0.00278319  0.49522463  0.60789965
   0.50187298  0.49517651  0.61668312
   0.16944576  0.16363104  0.65712490
   0.16445403  0.17151494  0.69615840
Direct configuration=    27
   0.00000000  0.00000000  0.39389619
   0.50000000  0.00000000  0.39389619
   0.00000000  0.50000000  0.39389619
   0.50000000  0.50000000  0.39389619
   0.16666667  0.16666667  0.46463206
   0.66666667  0.16666667  0.46463206
   0.16666667  0.66666667  0.46463206
   0.66666667  0.66666667  0.46463206
   0.83042122  0.33091304  0.53723109
   0.32865530  0.33527810  0.53409553
   0.82787936  0.83965181  0.54113736
   0.32435385  0.83824837  0.53902996
   0.99415850  0.99803814  0.61272537
   0.50494219  0.99896703  0.61204822
   0.00310014  0.49433582  0.60786879
   0.50175767  0.49558172  0.61682258
   0.16955748  0.16383952  0.65709291
   0.16417899  0.17215531  0.69612102
Direct configuration=    28
   0.00000000  0.00000000  0.39389619
   0.50000000  0.00000000  0.39389619
   0.00000000  0.50000000  0.39389619
   0.50000000  0.50000000  0.39389619
   0.16666667  0.16666667  0.46463206
   0.66666667  0.16666667  0.46463206
   0.16666667  0.66666667  0.46463206
   0.66666667  0.66666667  0.46463206
   0.82961290  0.33095491  0.53740796
   0.32803972  0.33517825  0.53441077
   0.82756196  0.83932010  0.54103059
   0.32435117  0.83766476  0.53880624
   0.99444555  0.99757005  0.61278510
   0.50461466  0.99845364  0.61205853
   0.00373404  0.49255821  0.60780707
   0.50152705  0.49639215  0.61710151
   0.16978092  0.16425649  0.65702893
   0.16362892  0.17343605  0.69604624
Direct configuration=    29
   0.00000000  0.00000000  0.39389619
   0.50000000  0.00000000  0.39389619
   0.00000000  0.50000000  0.39389619
   0.50000000  0.50000000  0.39389619
   0.16666667  0.16666667  0.46463206
   0.66666667  0.16666667  0.46463206
   0.16666667  0.66666667  0.46463206
   0.66666667  0.66666667  0.46463206
   0.82994117  0.33093791  0.53733613
   0.32828972  0.33521880  0.53428274
   0.82769086  0.83945481  0.54107395
   0.32435226  0.83790178  0.53889710
   0.99432897  0.99776015  0.61276084
   0.50474768  0.99866214  0.61205434
   0.00347660  0.49328013  0.60783214
   0.50162071  0.49606302  0.61698823
   0.16969018  0.16408716  0.65705492
   0.16385231  0.17291592  0.69607661
Direct configuration=    30
   0.00000000  0.00000000  0.39389619
   0.50000000  0.00000000  0.39389619
   0.00000000  0.50000000  0.39389619
   0.50000000  0.50000000  0.39389619
   0.16666667  0.16666667  0.46463206
   0.66666667  0.16666667  0.46463206
   0.16666667  0.66666667  0.46463206
   0.66666667  0.66666667  0.46463206
   0.82967348  0.33092024  0.53734578
   0.32818784  0.33507227  0.53431056
   0.82755638  0.83930944  0.54105113
   0.32418973  0.83793666  0.53892189
   0.99439720  0.99752250  0.61274126
   0.50477563  0.99851337  0.61201783
   0.00357827  0.49308069  0.60781540
   0.50152245  0.49607013  0.61706034
   0.16973443  0.16417158  0.65702948
   0.16368739  0.17334984  0.69611286
Direct configuration=    31
   0.00000000  0.00000000  0.39389619
   0.50000000  0.00000000  0.39389619
   0.00000000  0.50000000  0.39389619
   0.50000000  0.50000000  0.39389619
   0.16666667  0.16666667  0.46463206
   0.66666667  0.16666667  0.46463206
   0.16666667  0.66666667  0.46463206
   0.66666667  0.66666667  0.46463206
   0.82966493  0.33091967  0.53734609
   0.32818458  0.33506759  0.53431145
   0.82755208  0.83930479  0.54105040
   0.32418454  0.83793778  0.53892268
   0.99439938  0.99751491  0.61274063
   0.50477653  0.99850862  0.61201667
   0.00358152  0.49307431  0.60781486
   0.50151931  0.49607035  0.61706264
   0.16973584  0.16417428  0.65702867
   0.16368212  0.17336370  0.69611402
Direct configuration=    32
   0.00000000  0.00000000  0.39389619
   0.50000000  0.00000000  0.39389619
   0.00000000  0.50000000  0.39389619
   0.50000000  0.50000000  0.39389619
   0.16666667  0.16666667  0.46463206
   0.66666667  0.16666667  0.46463206
   0.16666667  0.66666667  0.46463206
   0.66666667  0.66666667  0.46463206
   0.82960494  0.33091494  0.53734735
   0.32816360  0.33503423  0.53431605
   0.82752228  0.83927160  0.54104555
   0.32414646  0.83794626  0.53892985
   0.99441231  0.99746297  0.61273584
   0.50478486  0.99847688  0.61200809
   0.00360083  0.49303713  0.60781126
   0.50149887  0.49606487  0.61707842
   0.16974341  0.16419488  0.65703175
   0.16364717  0.17345770  0.69611381
Direct configuration=    33
   0.00000000  0.00000000  0.39389619
   0.50000000  0.00000000  0.39389619
   0.00000000  0.50000000  0.39389619
   0.50000000  0.50000000  0.39389619
   0.16666667  0.16666667  0.46463206
   0.66666667  0.16666667  0.46463206
   0.16666667  0.66666667  0.46463206
   0.66666667  0.66666667  0.46463206
   0.82942497  0.33090073  0.53735113
   0.32810065  0.33493416  0.53432983
   0.82743286  0.83917201  0.54103099
   0.32403220  0.83797170  0.53895136
   0.99445109  0.99730714  0.61272146
   0.50480988  0.99838166  0.61198235
   0.00365877  0.49292559  0.60780045
   0.50143754  0.49604842  0.61712574
   0.16976611  0.16425668  0.65704101
   0.16354233  0.17373970  0.69611320
Direct configuration=    34
   0.00000000  0.00000000  0.39389619
   0.50000000  0.00000000  0.39389619
   0.00000000  0.50000000  0.39389619
   0.50000000  0.50000000  0.39389619
   0.16666667  0.16666667  0.46463206
   0.66666667  0.16666667  0.46463206
   0.16666667  0.66666667  0.46463206
   0.66666667  0.66666667  0.46463206
   0.82906503  0.33087232  0.53735870
   0.32797476  0.33473402  0.53435740
   0.82725403  0.83897284  0.54100188
   0.32380370  0.83802259  0.53899438
   0.99452864  0.99699549  0.61269270
   0.50485990  0.99819122  0.61193087
   0.00377463  0.49270250  0.60777883
   0.50131490  0.49601551  0.61722039
   0.16981152  0.16438028  0.65705951
   0.16333264  0.17430368  0.69611197
Direct configuration=    35
   0.00000000  0.00000000  0.39389619
   0.50000000  0.00000000  0.39389619
   0.00000000  0.50000000  0.39389619
   0.50000000  0.50000000  0.39389619
   0.16666667  0.16666667  0.46463206
   0.66666667  0.16666667  0.46463206
   0.16666667  0.66666667  0.46463206
   0.66666667  0.66666667  0.46463206
   0.82834515  0.33081550  0.53737382
   0.32772298  0.33433374  0.53441253
   0.82689636  0.83857450  0.54094365
   0.32334668  0.83812437  0.53908041
   0.99468376  0.99637218  0.61263519
   0.50495995  0.99781035  0.61182792
   0.00400636  0.49225632  0.60773559
   0.50106960  0.49594971  0.61740968
   0.16990234  0.16462749  0.65709652
   0.16291327  0.17543166  0.69610950
Direct configuration=    36
   0.00000000  0.00000000  0.39389619
   0.50000000  0.00000000  0.39389619
   0.00000000  0.50000000  0.39389619
   0.50000000  0.50000000  0.39389619
   0.16666667  0.16666667  0.46463206
   0.66666667  0.16666667  0.46463206
   0.16666667  0.66666667  0.46463206
   0.66666667  0.66666667  0.46463206
   0.82828580  0.33081082  0.53737507
   0.32770222  0.33430074  0.53441708
   0.82686688  0.83854166  0.54093885
   0.32330901  0.83813276  0.53908750
   0.99469655  0.99632079  0.61263045
   0.50496819  0.99777895  0.61181943
   0.00402547  0.49221953  0.60773202
   0.50104938  0.49594428  0.61742528
   0.16990983  0.16464787  0.65709958
   0.16287870  0.17552466  0.69610930
Direct configuration=    37
   0.00000000  0.00000000  0.39389619
   0.50000000  0.00000000  0.39389619
   0.00000000  0.50000000  0.39389619
   0.50000000  0.50000000  0.39389619
   0.16666667  0.16666667  0.46463206
   0.66666667  0.16666667  0.46463206
   0.16666667  0.66666667  0.46463206
   0.66666667  0.66666667  0.46463206
   0.82817339  0.33078950  0.53737465
   0.32766619  0.33427265  0.53441464
   0.82683735  0.83847152  0.54093001
   0.32323786  0.83808233  0.53909476
   0.99466550  0.99629129  0.61262705
   0.50498198  0.99774722  0.61180964
   0.00401173  0.49217959  0.60772534
   0.50107115  0.49586455  0.61745315
   0.16991473  0.16469213  0.65709618
   0.16281694  0.17569276  0.69611413
Direct configuration=    38
   0.00000000  0.00000000  0.39389619
   0.50000000  0.00000000  0.39389619
   0.00000000  0.50000000  0.39389619
   0.50000000  0.50000000  0.39389619
   0.16666667  0.16666667  0.46463206
   0.66666667  0.16666667  0.46463206
   0.16666667  0.66666667  0.46463206
   0.66666667  0.66666667  0.46463206
   0.82783616  0.33072553  0.53737340
   0.32755809  0.33418837  0.53440732
   0.82674876  0.83826112  0.54090348
   0.32302444  0.83793104  0.53911656
   0.99457235  0.99620279  0.61261688
   0.50502334  0.99765201  0.61178029
   0.00397051  0.49205976  0.60770531
   0.50113647  0.49562535  0.61753674
   0.16992944  0.16482491  0.65708600
   0.16263168  0.17619709  0.69612863
Direct configuration=    39
   0.00000000  0.00000000  0.39389619
   0.50000000  0.00000000  0.39389619
   0.00000000  0.50000000  0.39389619
   0.50000000  0.50000000  0.39389619
   0.16666667  0.16666667  0.46463206
   0.66666667  0.16666667  0.46463206
   0.16666667  0.66666667  0.46463206
   0.66666667  0.66666667  0.46463206
   0.82773267  0.33069537  0.53737201
   0.32752322  0.33417190  0.53439977
   0.82672846  0.83819055  0.54089514
   0.32295899  0.83785501  0.53912072
   0.99452370  0.99620335  0.61261724
   0.50502985  0.99763149  0.61177463
   0.00393440  0.49203435  0.60769874
   0.50117735  0.49553036  0.61756201
   0.16992637  0.16487689  0.65709335
   0.16258017  0.17634489  0.69611893
Direct configuration=    40
   0.00000000  0.00000000  0.39389619
   0.50000000  0.00000000  0.39389619
   0.00000000  0.50000000  0.39389619
   0.50000000  0.50000000  0.39389619
   0.16666667  0.16666667  0.46463206
   0.66666667  0.16666667  0.46463206
   0.16666667  0.66666667  0.46463206
   0.66666667  0.66666667  0.46463206
   0.82744497  0.33061153  0.53736817
   0.32742628  0.33412609  0.53437878
   0.82667205  0.83799438  0.54087197
   0.32277708  0.83764367  0.53913231
   0.99438846  0.99620489  0.61261824
   0.50504792  0.99757444  0.61175890
   0.00383403  0.49196372  0.60768047
   0.50129100  0.49526631  0.61763223
   0.16991785  0.16502137  0.65711378
   0.16243698  0.17675576  0.69609194
Direct configuration=    41
   0.00000000  0.00000000  0.39389619
   0.50000000  0.00000000  0.39389619
   0.00000000  0.50000000  0.39389619
   0.50000000  0.50000000  0.39389619
   0.16666667  0.16666667  0.46463206
   0.66666667  0.16666667  0.46463206
   0.16666667  0.66666667  0.46463206
   0.66666667  0.66666667  0.46463206
   0.82736514  0.33058170  0.53736683
   0.32739701  0.33411245  0.53437090
   0.82665571  0.83793655  0.54086531
   0.32272601  0.83757679  0.53913488
   0.99434664  0.99621193  0.61261988
   0.50504945  0.99755905  0.61175556
   0.00379762  0.49194825  0.60767485
   0.50132586  0.49518771  0.61765201
   0.16991419  0.16506399  0.65711231
   0.16239620  0.17687492  0.69609008
Direct configuration=    42
   0.00000000  0.00000000  0.39389619
   0.50000000  0.00000000  0.39389619
   0.00000000  0.50000000  0.39389619
   0.50000000  0.50000000  0.39389619
   0.16666667  0.16666667  0.46463206
   0.66666667  0.16666667  0.46463206
   0.16666667  0.66666667  0.46463206
   0.66666667  0.66666667  0.46463206
   0.82712564  0.33049219  0.53736282
   0.32730918  0.33407153  0.53434723
   0.82660671  0.83776306  0.54084533
   0.32257283  0.83737617  0.53914261
   0.99422116  0.99623304  0.61262478