   16   16  200    1
  0.5260633E+02  0.5610892E-09  0.5610892E-09  0.3087191E-08  0.5000000E-15
   1.0000000000000000E-004
  CAR 
 Cu-Ag alloy CO adsorption (RPBE, matches
    176     10    105
 
  0.1262379E-14  0.1262379E-14  0.1262379E-14  0.6250000E-01
      1         -8.037175   1.000000
      2         -7.156158   1.000000
      3         -6.956855   1.000000
      4         -6.815778   1.000000
      5         -6.802986   1.000000
      6         -6.712854   1.000000
      7         -6.649402   1.000000
      8         -6.585466   1.000000
      9         -6.522210   1.000000
     10         -6.454799   1.000000
     11         -6.371543   1.000000
     12         -6.327289   1.000000
     13         -6.289622   1.000000
     14         -6.241807   1.000000
     15         -6.167167   1.000000
     16         -6.141148   1.000000
     17         -6.074376   1.000000
     18         -6.009403   1.000000
     19         -5.938295   1.000000
     20         -5.873295   1.000000
     21         -5.796429   1.000000
     22         -5.639610   1.000000
     23         -5.521449   1.000000
     24         -5.400497   1.000000
     25         -5.354997   1.000000
     26         -5.303843   1.000000
     27         -5.235452   1.000000
     28         -5.155595   1.000000
     29         -4.938174   1.000000
     30         -4.892637   1.000000
     31         -4.866431   1.000000
     32         -4.800959   1.000000
     33         -4.755584   1.000000
     34         -4.703316   1.000000
     35         -4.676071   1.000000
     36         -4.576190   1.000000
     37         -4.555508   1.000000
     38         -4.524966   1.000000
     39         -4.470125   1.000000
     40         -4.432436   1.000000
     41         -4.403241   1.000000
     42         -4.365936   1.000000
     43         -4.295627   1.000000
     44         -4.272229   1.000000
     45         -4.228035   1.000000
     46         -4.158746   1.000000
     47         -4.113384   1.000000
     48         -4.066202   1.000000
     49         -3.992914   1.000000
     50         -3.976194   1.000000
     51         -3.930516   1.000000
     52         -3.894420   1.000000
     53         -3.840058   1.000000
     54         -3.798611   1.000000
     55         -3.738330   1.000000
     56         -3.717073   1.000000
     57         -3.646578   1.000000
     58         -3.595034   1.000000
     59         -3.529920   1.000000
     60         -3.256530   1.000000
     61         -3.214841   1.000000
     62         -3.188082   1.000000
     63         -3.089815   1.000000
     64         -2.822436   1.000000
     65         -2.812045   1.000000
     66         -2.795332   1.000000
     67         -2.701998   1.000000
     68         -2.541237   1.000000
     69         -2.508595   1.000000
     70         -2.477281   1.000000
     71         -2.457197   1.000000
     72         -2.430262   1.000000
     73         -2.377627   1.000000
     74         -2.359307   1.000000
     75         -2.327679   1.000000
     76         -2.314081   1.000000
     77         -2.306416   1.000000
     78         -2.298936   1.000000
     79         -2.279694   1.000000
     80         -2.253323   1.000000
     81         -2.249421   1.000000
     82         -2.224611   1.000000
     83         -2.203372   1.000000
     84         -1.593623   1.000000
     85         -0.487290   0.367158
     86         -0.356350   0.014220
     87         -0.338289   0.007211
     88         -0.323563   0.003967
     89          0.392204   0.000000
     90          0.462256   0.000000
     91          0.508745   0.000000
     92          0.938604   0.000000
     93          0.974660   0.000000
     94          1.052496   0.000000
     95          1.125487   0.000000
     96          1.215238   0.000000
     97          1.236116   0.000000
     98          3.215264   0.000000
     99          3.480125   0.000000
    100          3.530772   0.000000
    101          3.597158   0.000000
    102          3.702337   0.000000
    103          3.901477   0.000000
    104          4.031634   0.000000
    105          4.245726   0.000000
 
  0.2500000E+00  0.1210830E-14  0.1262379E-14  0.1250000E+00
      1         -7.607286   1.000000
      2         -6.776559   1.000000
      3         -6.714582   1.000000
      4         -6.612934   1.000000
      5         -6.574297   1.000000
      6         -6.549251   1.000000
      7         -6.442426   1.000000
      8         -6.374275   1.000000
      9         -6.357923   1.000000
     10         -6.277385   1.000000
     11         -6.241367   1.000000
     12         -6.161995   1.000000
     13         -6.117726   1.000000
     14         -6.046048   1.000000
     15         -6.017089   1.000000
     16         -5.967201   1.000000
     17         -5.905598   1.000000
     18         -5.840841   1.000000
     19         -5.789299   1.000000
     20         -5.728556   1.000000
     21         -5.642214   1.000000
     22         -5.607418   1.000000
     23         -5.440131   1.000000
     24         -5.380562   1.000000
     25         -5.335501   1.000000
     26         -5.301587   1.000000
     27         -5.210277   1.000000
     28         -5.148030   1.000000
     29         -5.021979   1.000000
     30         -4.949975   1.000000
     31         -4.932844   1.000000
     32         -4.870437   1.000000
     33         -4.802532   1.000000
     34         -4.777383   1.000000
     35         -4.760040   1.000000
     36         -4.716049   1.000000
     37         -4.702353   1.000000
     38         -4.634924   1.000000
     39         -4.586773   1.000000
     40         -4.543595   1.000000
     41         -4.515912   1.000000
     42         -4.434835   1.000000
     43         -4.404216   1.000000
     44         -4.371007   1.000000
     45         -4.303185   1.000000
     46         -4.273153   1.000000
     47         -4.229609   1.000000
     48         -4.201633   1.000000
     49         -4.141213   1.000000
     50         -4.087815   1.000000
     51         -4.056299   1.000000
     52         -3.986799   1.000000
     53         -3.956414   1.000000
     54         -3.903583   1.000000
     55         -3.866320   1.000000
     56         -3.834449   1.000000
     57         -3.773999   1.000000
     58         -3.712468   1.000000
     59         -3.672568   1.000000
     60         -3.650200   1.000000
     61         -3.563861   1.000000
     62         -3.491146   1.000000
     63         -3.275907   1.000000
     64         -3.052257   1.000000
     65         -2.896787   1.000000
     66         -2.835187   1.000000
     67         -2.813778   1.000000
     68         -2.773237   1.000000
     69         -2.723923   1.000000
     70         -2.663762   1.000000
     71         -2.590209   1.000000
     72         -2.557493   1.000000
     73         -2.521689   1.000000
     74         -2.487816   1.000000
     75         -2.467639   1.000000
     76         -2.458517   1.000000
     77         -2.447571   1.000000
     78         -2.425769   1.000000
     79         -2.385336   1.000000
     80         -2.336584   1.000000
     81         -2.289963   1.000000
     82         -2.265142   1.000000
     83         -2.247371   1.000000
     84         -2.216441   1.000000
     85         -1.816795   1.000000
     86         -1.019829   1.000000
     87         -0.606786   0.911580
     88         -0.552789   0.721367
     89         -0.292067   0.000967
     90          0.061931   0.000000
     91          0.093061   0.000000
     92          0.434883   0.000000
     93          1.284891   0.000000
     94          1.361464   0.000000
     95          1.846033   0.000000
     96          2.591985   0.000000
     97          2.713070   0.000000
     98          3.565956   0.000000
     99          3.925392   0.000000
    100          3.967454   0.000000
    101          4.040773   0.000000
    102          4.355930   0.000000
    103          4.433758   0.000000
    104          4.561174   0.000000
    105          4.641982   0.000000
 
  0.2500000E+00  0.2500000E+00  0.1262379E-14  0.1250000E+00
      1         -7.605976   1.000000
      2         -6.791631   1.000000
      3         -6.699164   1.000000
      4         -6.596147   1.000000
      5         -6.582878   1.000000
      6         -6.533294   1.000000
      7         -6.458204   1.000000
      8         -6.391301   1.000000
      9         -6.341752   1.000000
     10         -6.281044   1.000000
     11         -6.212080   1.000000
     12         -6.165257   1.000000
     13         -6.147938   1.000000
     14         -6.038278   1.000000
     15         -5.990980   1.000000
     16         -5.974482   1.000000
     17         -5.909855   1.000000
     18         -5.863450   1.000000
     19         -5.759273   1.000000
     20         -5.743830   1.000000
     21         -5.637202   1.000000
     22         -5.600125   1.000000
     23         -5.493413   1.000000
     24         -5.415124   1.000000
     25         -5.327423   1.000000
     26         -5.269545   1.000000
     27         -5.203119   1.000000
     28         -5.149235   1.000000
     29         -5.057765   1.000000
     30         -5.001718   1.000000
     31         -4.928439   1.000000
     32         -4.873259   1.000000
     33         -4.822865   1.000000
     34         -4.783637   1.000000
     35         -4.747314   1.000000
     36         -4.694399   1.000000
     37         -4.675600   1.000000
     38         -4.649350   1.000000
     39         -4.559039   1.000000
     40         -4.530067   1.000000
     41         -4.519863   1.000000
     42         -4.429875   1.000000
     43         -4.407083   1.000000
     44         -4.357636   1.000000
     45         -4.327929   1.000000
     46         -4.260682   1.000000
     47         -4.227378   1.000000
     48         -4.191883   1.000000
     49         -4.145005   1.000000
     50         -4.103871   1.000000
     51         -4.055886   1.000000
     52         -4.006675   1.000000
     53         -3.972171   1.000000
     54         -3.908081   1.000000
     55         -3.874315   1.000000
     56         -3.823230   1.000000
     57         -3.756169   1.000000
     58         -3.672381   1.000000
     59         -3.650832   1.000000
     60         -3.620157   1.000000
     61         -3.558014   1.000000
     62         -3.435663   1.000000
     63         -3.350873   1.000000
     64         -3.051178   1.000000
     65         -2.912091   1.000000
     66         -2.850838   1.000000
     67         -2.811540   1.000000
     68         -2.774188   1.000000
     69         -2.721071   1.000000
     70         -2.690248   1.000000
     71         -2.580484   1.000000
     72         -2.545759   1.000000
     73         -2.512907   1.000000
     74         -2.486738   1.000000
     75         -2.470419   1.000000
     76         -2.450110   1.000000
     77         -2.431027   1.000000
     78         -2.415640   1.000000
     79         -2.383175   1.000000
     80         -2.354916   1.000000
     81         -2.312683   1.000000
     82         -2.272118   1.000000
     83         -2.230145   1.000000
     84         -2.191212   1.000000
     85         -1.820714   1.000000
     86         -1.022754   1.000000
     87         -0.599604   0.894163
     88         -0.557377   0.742736
     89         -0.284548   0.000672
     90          0.074277   0.000000
     91          0.101428   0.000000
     92          0.424655   0.000000
     93          1.250746   0.000000
     94          1.371834   0.000000
     95          1.842511   0.000000
     96          2.621487   0.000000
     97          2.700691   0.000000
     98          3.555786   0.000000
     99          3.909210   0.000000
    100          3.938927   0.000000
    101          4.068009   0.000000
    102          4.342817   0.000000
    103          4.423736   0.000000
    104          4.534169   0.000000
    105          4.697148   0.000000
 
  0.1262379E-14  0.2500000E+00  0.1262379E-14  0.1250000E+00
      1         -7.607588   1.000000
      2         -6.795663   1.000000
      3         -6.712957   1.000000
      4         -6.622688   1.000000
      5         -6.562967   1.000000
      6         -6.528945   1.000000
      7         -6.449365   1.000000
      8         -6.392538   1.000000
      9         -6.376079   1.000000
     10         -6.303184   1.000000
     11         -6.225623   1.000000
     12         -6.165800   1.000000
     13         -6.130989   1.000000
     14         -6.080972   1.000000
     15         -5.968331   1.000000
     16         -5.921057   1.000000
     17         -5.894983   1.000000
     18         -5.847291   1.000000
     19         -5.774537   1.000000
     20         -5.708818   1.000000
     21         -5.687103   1.000000
     22         -5.533562   1.000000
     23         -5.462963   1.000000
     24         -5.436388   1.000000
     25         -5.330739   1.000000
     26         -5.253850   1.000000
     27         -5.175707   1.000000
     28         -5.141378   1.000000
     29         -5.020897   1.000000
     30         -4.981886   1.000000
     31         -4.971203   1.000000
     32         -4.901671   1.000000
     33         -4.860067   1.000000
     34         -4.815888   1.000000
     35         -4.755682   1.000000
     36         -4.690427   1.000000
     37         -4.641713   1.000000
     38         -4.618587   1.000000
     39         -4.572742   1.000000
     40         -4.522518   1.000000
     41         -4.489628   1.000000
     42         -4.461228   1.000000
     43         -4.393566   1.000000
     44         -4.355182   1.000000
     45         -4.329777   1.000000
     46         -4.266745   1.000000
     47         -4.248814   1.000000
     48         -4.221965   1.000000
     49         -4.162089   1.000000
     50         -4.121757   1.000000
     51         -4.040771   1.000000
     52         -4.005901   1.000000
     53         -3.939163   1.000000
     54         -3.906408   1.000000
     55         -3.872295   1.000000
     56         -3.828173   1.000000
     57         -3.755041   1.000000
     58         -3.680565   1.000000
     59         -3.670477   1.000000
     60         -3.587384   1.000000
     61         -3.570596   1.000000
     62         -3.426827   1.000000
     63         -3.347041   1.000000
     64         -3.065797   1.000000
     65         -2.910304   1.000000
     66         -2.849409   1.000000
     67         -2.804484   1.000000
     68         -2.766908   1.000000
     69         -2.720839   1.000000
     70         -2.664060   1.000000
     71         -2.604331   1.000000
     72         -2.556804   1.000000
     73         -2.535581   1.000000
     74         -2.487513   1.000000
     75         -2.477388   1.000000
     76         -2.454740   1.000000
     77         -2.433969   1.000000
     78         -2.401698   1.000000
     79         -2.386401   1.000000
     80         -2.353982   1.000000
     81         -2.315398   1.000000
     82         -2.282986   1.000000
     83         -2.246180   1.000000
     84         -2.186934   1.000000
     85         -1.821883   1.000000
     86         -1.022040   1.000000
     87         -0.591477   0.871612
     88         -0.562598   0.765967
     89         -0.294718   0.001097
     90          0.022863   0.000000
     91          0.143251   0.000000
     92          0.436939   0.000000
     93          1.301424   0.000000
     94          1.334456   0.000000
     95          1.856926   0.000000
     96          2.613390   0.000000
     97          2.693300   0.000000
     98          3.555669   0.000000
     99          3.908283   0.000000
    100          3.953029   0.000000
    101          4.060985   0.000000
    102          4.363454   0.000000
    103          4.413541   0.000000
    104          4.542433   0.000000
    105          4.683273   0.000000
 
  0.5000000E+00  0.1182331E-14  0.1262379E-14  0.6250000E-01
      1         -6.747088   1.000000
      2         -6.670033   1.000000
      3         -6.461526   1.000000
      4         -6.363173   1.000000
      5         -6.264469   1.000000
      6         -6.238613   1.000000
      7         -6.175925   1.000000
      8         -6.160863   1.000000
      9         -6.120317   1.000000
     10         -6.041935   1.000000
     11         -5.944256   1.000000
     12         -5.878072   1.000000
     13         -5.860174   1.000000
     14         -5.820036   1.000000
     15         -5.783482   1.000000
     16         -5.701875   1.000000
     17         -5.672722   1.000000
     18         -5.637824   1.000000
     19         -5.562974   1.000000
     20         -5.521856   1.000000
     21         -5.470056   1.000000
     22         -5.435891   1.000000
     23         -5.393326   1.000000
     24         -5.367215   1.000000
     25         -5.326696   1.000000
     26         -5.278560   1.000000
     27         -5.158320   1.000000
     28         -5.117995   1.000000
     29         -5.060104   1.000000
     30         -5.046033   1.000000
     31         -4.998390   1.000000
     32         -4.977718   1.000000
     33         -4.911745   1.000000
     34         -4.874590   1.000000
     35         -4.848032   1.000000
     36         -4.818481   1.000000
     37         -4.789506   1.000000
     38         -4.778297   1.000000
     39         -4.726343   1.000000
     40         -4.702569   1.000000
     41         -4.685559   1.000000
     42         -4.649474   1.000000
     43         -4.616526   1.000000
     44         -4.565441   1.000000
     45         -4.549203   1.000000
     46         -4.499406   1.000000
     47         -4.468101   1.000000
     48         -4.445847   1.000000
     49         -4.412691   1.000000
     50         -4.361485   1.000000
     51         -4.327020   1.000000
     52         -4.293835   1.000000
     53         -4.235099   1.000000
     54         -4.213326   1.000000
     55         -4.109516   1.000000
     56         -4.087618   1.000000
     57         -4.057042   1.000000
     58         -3.961302   1.000000
     59         -3.862743   1.000000
     60         -3.825855   1.000000
     61         -3.801140   1.000000
     62         -3.709294   1.000000
     63         -3.667613   1.000000
     64         -3.541476   1.000000
     65         -3.001891   1.000000
     66         -2.994392   1.000000
     67         -2.875814   1.000000
     68         -2.842257   1.000000
     69         -2.826451   1.000000
     70         -2.792933   1.000000
     71         -2.782923   1.000000
     72         -2.735205   1.000000
     73         -2.699792   1.000000
     74         -2.678472   1.000000
     75         -2.629931   1.000000
     76         -2.623126   1.000000
     77         -2.588420   1.000000
     78         -2.537973   1.000000
     79         -2.510960   1.000000
     80         -2.482677   1.000000
     81         -2.412541   1.000000
     82         -2.320948   1.000000
     83         -2.308777   1.000000
     84         -2.256574   1.000000
     85         -1.855211   1.000000
     86         -1.752236   1.000000
     87         -0.678671   0.991037
     88         -0.614580   0.927960
     89         -0.016033   0.000000
     90          0.055304   0.000000
     91          0.152167   0.000000
     92          0.274760   0.000000
     93          1.345846   0.000000
     94          1.509731   0.000000
     95          2.218297   0.000000
     96          2.319961   0.000000
     97          3.350191   0.000000
     98          3.399654   0.000000
     99          4.592599   0.000000
    100          4.625553   0.000000
    101          5.113589   0.000000
    102          5.167749   0.000000
    103          5.528595   0.000000
    104          5.605756   0.000000
    105          5.622740   0.000000
 
  0.5000000E+00  0.5000000E+00  0.1262379E-14  0.6250000E-01
      1         -6.748266   1.000000
      2         -6.648760   1.000000
      3         -6.461738   1.000000
      4         -6.374325   1.000000
      5         -6.270268   1.000000
      6         -6.207567   1.000000
      7         -6.183071   1.000000
      8         -6.123960   1.000000
      9         -6.100122   1.000000
     10         -6.021250   1.000000
     11         -5.962523   1.000000
     12         -5.919066   1.000000
     13         -5.870470   1.000000
     14         -5.802942   1.000000
     15         -5.763252   1.000000
     16         -5.679576   1.000000
     17         -5.673195   1.000000
     18         -5.632574   1.000000
     19         -5.587341   1.000000
     20         -5.533522   1.000000
     21         -5.518433   1.000000
     22         -5.467697   1.000000
     23         -5.406840   1.000000
     24         -5.382219   1.000000
     25         -5.279795   1.000000
     26         -5.262213   1.000000
     27         -5.253698   1.000000
     28         -5.180071   1.000000
     29         -5.108997   1.000000
     30         -5.061332   1.000000
     31         -5.036504   1.000000
     32         -4.991006   1.000000
     33         -4.921228   1.000000
     34         -4.878748   1.000000
     35         -4.862388   1.000000
     36         -4.832696   1.000000
     37         -4.798418   1.000000
     38         -4.764889   1.000000
     39         -4.745875   1.000000
     40         -4.663124   1.000000
     41         -4.658110   1.000000
     42         -4.624871   1.000000
     43         -4.608235   1.000000
     44         -4.566271   1.000000
     45         -4.548808   1.000000
     46         -4.505350   1.000000
     47         -4.457182   1.000000
     48         -4.400913   1.000000
     49         -4.382883   1.000000
     50         -4.348498   1.000000
     51         -4.296350   1.000000
     52         -4.286813   1.000000
     53         -4.244085   1.000000
     54         -4.167699   1.000000
     55         -4.157056   1.000000
     56         -4.057182   1.000000
     57         -4.028685   1.000000
     58         -3.966583   1.000000
     59         -3.948080   1.000000
     60         -3.800373   1.000000
     61         -3.704571   1.000000
     62         -3.644381   1.000000
     63         -3.631867   1.000000
     64         -3.446929   1.000000
     65         -3.145993   1.000000
     66         -3.048092   1.000000
     67         -2.975096   1.000000
     68         -2.880884   1.000000
     69         -2.858361   1.000000
     70         -2.800285   1.000000
     71         -2.768077   1.000000
     72         -2.731200   1.000000
     73         -2.671202   1.000000
     74         -2.657129   1.000000
     75         -2.653533   1.000000
     76         -2.588298   1.000000
     77         -2.561986   1.000000
     78         -2.520963   1.000000
     79         -2.478763   1.000000
     80         -2.458469   1.000000
     81         -2.386637   1.000000
     82         -2.338323   1.000000
     83         -2.288813   1.000000
     84         -2.232939   1.000000
     85         -1.853323   1.000000
     86         -1.756800   1.000000
     87         -0.674222   0.989395
     88         -0.621788   0.940938
     89         -0.017345   0.000000
     90          0.064948   0.000000
     91          0.136720   0.000000
     92          0.285275   0.000000
     93          1.308927   0.000000
     94          1.531637   0.000000
     95          2.194872   0.000000
     96          2.327403   0.000000
     97          3.320941   0.000000
     98          3.439846   0.000000
     99          4.559981   0.000000
    100          4.672420   0.000000
    101          5.110925   0.000000
    102          5.168230   0.000000
    103          5.508738   0.000000
    104          5.594488   0.000000
    105          5.621155   0.000000
 
  0.1262379E-14  0.5000000E+00  0.1262379E-14  0.6250000E-01
      1         -6.775625   1.000000
      2         -6.634237   1.000000
      3         -6.525726   1.000000
      4         -6.341194   1.000000
      5         -6.331033   1.000000
      6         -6.281584   1.000000
      7         -6.200119   1.000000
      8         -6.105656   1.000000
      9         -6.024498   1.000000
     10         -6.018148   1.000000
     11         -5.952139   1.000000
     12         -5.924924   1.000000
     13         -5.895332   1.000000
     14         -5.841816   1.000000
     15         -5.759014   1.000000
     16         -5.751030   1.000000
     17         -5.652340   1.000000
     18         -5.592869   1.000000
     19         -5.551556   1.000000
     20         -5.490136   1.000000
     21         -5.439226   1.000000
     22         -5.418824   1.000000
     23         -5.347789   1.000000
     24         -5.314250   1.000000
     25         -5.246341   1.000000
     26         -5.234873   1.000000
     27         -5.193941   1.000000
     28         -5.177776   1.000000
     29         -5.080856   1.000000
     30         -5.071103   1.000000
     31         -5.017335   1.000000
     32         -4.991577   1.000000
     33         -4.953122   1.000000
     34         -4.880505   1.000000
     35         -4.856181   1.000000
     36         -4.832097   1.000000
     37         -4.816373   1.000000
     38         -4.796874   1.000000
     39         -4.779780   1.000000
     40         -4.718829   1.000000
     41         -4.666430   1.000000
     42         -4.652332   1.000000
     43         -4.604531   1.000000
     44         -4.578771   1.000000
     45         -4.539502   1.000000
     46         -4.480702   1.000000
     47         -4.464980   1.000000
     48         -4.445533   1.000000
     49         -4.377706   1.000000
     50         -4.358879   1.000000
     51         -4.337169   1.000000
     52         -4.274416   1.000000
     53         -4.242598   1.000000
     54         -4.211068   1.000000
     55         -4.137546   1.000000
     56         -4.110918   1.000000
     57         -4.082832   1.000000
     58         -3.935806   1.000000
     59         -3.926705   1.000000
     60         -3.793444   1.000000
     61         -3.676064   1.000000
     62         -3.658279   1.000000
     63         -3.590010   1.000000
     64         -3.459597   1.000000
     65         -3.133189   1.000000
     66         -3.025871   1.000000
     67         -2.958510   1.000000
     68         -2.895733   1.000000
     69         -2.868579   1.000000
     70         -2.811801   1.000000
     71         -2.759392   1.000000
     72         -2.721886   1.000000
     73         -2.688995   1.000000
     74         -2.672348   1.000000
     75         -2.654325   1.000000
     76         -2.588894   1.000000
     77         -2.573581   1.000000
     78         -2.534236   1.000000
     79         -2.501847   1.000000
     80         -2.455963   1.000000
     81         -2.401084   1.000000
     82         -2.362417   1.000000
     83         -2.303607   1.000000
     84         -2.225071   1.000000
     85         -1.829860   1.000000
     86         -1.776085   1.000000
     87         -0.675892   0.990040
     88         -0.627893   0.950430
     89         -0.067107   0.000000
     90          0.114998   0.000000
     91          0.149922   0.000000
     92          0.290708   0.000000
     93          1.361903   0.000000
     94          1.484354   0.000000
     95          2.248005   0.000000
     96          2.303762   0.000000
     97          3.313938   0.000000
     98          3.428149   0.000000
     99          4.546509   0.000000
    100          4.664276   0.000000
    101          5.110146   0.000000
    102          5.164247   0.000000
    103          5.502934   0.000000
    104          5.616633   0.000000
    105          5.621458   0.000000
 
  0.5000000E+00  0.2500000E+00  0.1262379E-14  0.1250000E+00
      1         -6.875394   1.000000
      2         -6.386721   1.000000
      3         -6.338039   1.000000
      4         -6.323182   1.000000
      5         -6.269249   1.000000
      6         -6.231545   1.000000
      7         -6.191917   1.000000
      8         -6.157202   1.000000
      9         -6.103201   1.000000
     10         -6.010712   1.000000
     11         -5.950343   1.000000
     12         -5.919096   1.000000
     13         -5.889522   1.000000
     14         -5.837074   1.000000
     15         -5.805657   1.000000
     16         -5.779307   1.000000
     17         -5.729789   1.000000
     18         -5.703733   1.000000
     19         -5.634872   1.000000
     20         -5.576941   1.000000
     21         -5.537579   1.000000
     22         -5.453010   1.000000
     23         -5.428022   1.000000
     24         -5.383942   1.000000
     25         -5.346826   1.000000
     26         -5.300049   1.000000
     27         -5.210396   1.000000
     28         -5.194190   1.000000
     29         -5.140298   1.000000
     30         -5.103781   1.000000
     31         -5.041661   1.000000
     32         -5.006012   1.000000
     33         -4.991015   1.000000
     34         -4.958517   1.000000
     35         -4.913431   1.000000
     36         -4.857748   1.000000
     37         -4.822841   1.000000
     38         -4.766286   1.000000
     39         -4.750815   1.000000
     40         -4.695448   1.000000
     41         -4.680536   1.000000
     42         -4.589908   1.000000
     43         -4.553884   1.000000
     44         -4.524190   1.000000
     45         -4.512767   1.000000
     46         -4.461409   1.000000
     47         -4.424010   1.000000
     48         -4.370892   1.000000
     49         -4.316867   1.000000
     50         -4.304800   1.000000
     51         -4.238962   1.000000
     52         -4.214837   1.000000
     53         -4.185883   1.000000
     54         -4.108086   1.000000
     55         -4.028702   1.000000
     56         -4.009110   1.000000