       N       E                     dE             d eps       ncg     rms          rms(c)
DAV:   1     0.129119663063E+04    0.12912E+04   -0.69530E+04  2100   0.135E+03
DAV:   2     0.897349505699E+02   -0.12015E+04   -0.11093E+04  2190   0.324E+02
DAV:   3    -0.340405377585E+02   -0.12378E+03   -0.11249E+03  2736   0.123E+02
DAV:   4    -0.393859185130E+02   -0.53454E+01   -0.52964E+01  2888   0.314E+01
DAV:   5    -0.394677635783E+02   -0.81845E-01   -0.81751E-01  3032   0.351E+00    0.229E+01
DAV:   6    -0.378588011567E+02    0.16090E+01   -0.44598E+01  2960   0.728E+01    0.141E+01
DAV:   7    -0.352066166086E+02    0.26522E+01   -0.17095E+01  2544   0.125E+02    0.107E+01
DAV:   8    -0.352987356310E+02   -0.92119E-01   -0.33829E+00  3184   0.135E+01    0.465E+00
DAV:   9    -0.353915709742E+02   -0.92835E-01   -0.23497E+00  3168   0.265E+01    0.326E+00
DAV:  10    -0.352026948759E+02    0.18888E+00   -0.74791E-01  3048   0.168E+01    0.132E+00
DAV:  11    -0.351824631000E+02    0.20232E-01   -0.30553E-01  3192   0.815E+00    0.407E-01
DAV:  12    -0.351836606381E+02   -0.11975E-02   -0.42291E-02  3120   0.226E+00    0.233E-01
DAV:  13    -0.351828562672E+02    0.80437E-03   -0.59035E-03  2912   0.122E+00    0.887E-02
DAV:  14    -0.351828193698E+02    0.36897E-04   -0.13111E-03  2887   0.330E-01    0.557E-02
DAV:  15    -0.351827750285E+02    0.44341E-04   -0.28603E-04  2887   0.302E-01    0.580E-02
DAV:  16    -0.351827853984E+02   -0.10370E-04   -0.16020E-04  2976   0.213E-01    0.348E-02
DAV:  17    -0.351828406173E+02   -0.55219E-04   -0.78842E-05  2959   0.125E-01    0.148E-02
DAV:  18    -0.351829591751E+02   -0.11856E-03   -0.40209E-05  2960   0.919E-02    0.135E-02
DAV:  19    -0.351831059537E+02   -0.14678E-03   -0.19779E-05  2368   0.477E-02    0.108E-02
DAV:  20    -0.351831978488E+02   -0.91895E-04   -0.13971E-05  2264   0.296E-02    0.552E-03
DAV:  21    -0.351832636133E+02   -0.65765E-04   -0.77895E-06  1887   0.195E-02    0.266E-03
DAV:  22    -0.351833030805E+02   -0.39467E-04   -0.31665E-06  1511   0.148E-02    0.195E-03
DAV:  23    -0.351833353705E+02   -0.32290E-04   -0.17592E-06  1430   0.113E-02    0.103E-03
DAV:  24    -0.351833549785E+02   -0.19608E-04   -0.10044E-06  1367   0.682E-03    0.144E-03
DAV:  25    -0.351833618224E+02   -0.68438E-05   -0.42745E-07  1390   0.926E-03    0.700E-04
DAV:  26    -0.351833674798E+02   -0.56575E-05   -0.18663E-07  1340   0.358E-03    0.496E-04
DAV:  27    -0.351833691615E+02   -0.16817E-05   -0.11144E-07  1316   0.356E-03    0.370E-04
DAV:  28    -0.351833697147E+02   -0.55318E-06   -0.39489E-08  1262   0.207E-03
   1 F= -.35183370E+02 E0= -.35166091E+02  d E =-.351834E+02
       N       E                     dE             d eps       ncg     rms          rms(c)
DAV:   1    -0.352356400652E+02   -0.52271E-01   -0.35443E+01  2100   0.166E+01    0.442E-01
DAV:   2    -0.352722894797E+02   -0.36649E-01   -0.38695E-01  3238   0.492E+00    0.550E-01
DAV:   3    -0.352693032904E+02    0.29862E-02   -0.13010E-02  2879   0.194E+00    0.292E-01
DAV:   4    -0.352695344221E+02   -0.23113E-03   -0.46999E-03  3206   0.144E+00    0.207E-01
DAV:   5    -0.352690700682E+02    0.46435E-03   -0.39209E-03  3244   0.193E+00    0.154E-01
DAV:   6    -0.352686796308E+02    0.39044E-03   -0.20660E-03  3515   0.842E-01    0.627E-02
DAV:   7    -0.352685837083E+02    0.95922E-04   -0.46641E-04  3056   0.302E-01    0.309E-02
DAV:   8    -0.352685669852E+02    0.16723E-04   -0.12802E-04  3024   0.101E-01    0.222E-02
DAV:   9    -0.352685591533E+02    0.78319E-05   -0.35883E-05  2952   0.998E-02    0.117E-02
DAV:  10    -0.352685573485E+02    0.18048E-05   -0.11033E-05  1752   0.644E-02    0.407E-03
DAV:  11    -0.352685587068E+02   -0.13583E-05   -0.12065E-05  2719   0.224E-02    0.419E-03
DAV:  12    -0.352685584440E+02    0.26272E-06   -0.91771E-07  1320   0.150E-02
   2 F= -.35268558E+02 E0= -.35251700E+02  d E =-.851887E-01
       N       E                     dE             d eps       ncg     rms          rms(c)
DAV:   1    -0.352080957973E+02    0.60463E-01   -0.11407E+02  2100   0.298E+01    0.748E-01
DAV:   2    -0.353497951291E+02   -0.14170E+00   -0.14934E+00  3232   0.975E+00    0.102E+00
DAV:   3    -0.353384280471E+02    0.11367E-01   -0.42624E-02  2936   0.370E+00    0.524E-01
DAV:   4    -0.353379880599E+02    0.43999E-03   -0.10858E-02  3206   0.195E+00    0.381E-01
DAV:   5    -0.353371950893E+02    0.79297E-03   -0.83933E-03  3350   0.269E+00    0.308E-01
DAV:   6    -0.353360410152E+02    0.11541E-02   -0.69602E-03  3353   0.137E+00    0.122E-01
DAV:   7    -0.353357279419E+02    0.31307E-03   -0.20827E-03  3120   0.649E-01    0.504E-02
DAV:   8    -0.353357353225E+02   -0.73805E-05   -0.54685E-04  2951   0.245E-01    0.499E-02
DAV:   9    -0.353356919139E+02    0.43409E-04   -0.13427E-04  2912   0.205E-01    0.245E-02
DAV:  10    -0.353356835359E+02    0.83780E-05   -0.60091E-05  2992   0.142E-01    0.693E-03
DAV:  11    -0.353356869303E+02   -0.33944E-05   -0.20708E-05  2343   0.345E-02    0.586E-03
DAV:  12    -0.353356871947E+02   -0.26450E-06   -0.28062E-06  1592   0.295E-02
   3 F= -.35335687E+02 E0= -.35319262E+02  d E =-.152317E+00
       N       E                     dE             d eps       ncg     rms          rms(c)
DAV:   1    -0.353347010267E+02    0.98590E-03   -0.34438E+00  2102   0.510E+00    0.994E-02
DAV:   2    -0.353376228077E+02   -0.29218E-02   -0.30158E-02  3168   0.114E+00    0.109E-01
DAV:   3    -0.353375400001E+02    0.82808E-04   -0.70357E-04  2895   0.365E-01    0.649E-02
DAV:   4    -0.353375050744E+02    0.34926E-04   -0.15048E-04  3064   0.177E-01    0.419E-02
DAV:   5    -0.353375095756E+02   -0.45012E-05   -0.13342E-04  3518   0.311E-01    0.301E-02
DAV:   6    -0.353374961952E+02    0.13380E-04   -0.76580E-05  3357   0.238E-01    0.153E-02
DAV:   7    -0.353374895372E+02    0.66580E-05   -0.21323E-05  2133   0.113E-01    0.702E-03
DAV:   8    -0.353374891437E+02    0.39357E-06   -0.53417E-06  2040   0.201E-02
   4 F= -.35337489E+02 E0= -.35321078E+02  d E =-.154119E+00
       N       E                     dE             d eps       ncg     rms          rms(c)
DAV:   1    -0.353559596652E+02   -0.18470E-01   -0.32031E+01  2100   0.155E+01    0.296E-01
DAV:   2    -0.353847533685E+02   -0.28794E-01   -0.29877E-01  3231   0.408E+00    0.414E-01
DAV:   3    -0.353828984461E+02    0.18549E-02   -0.71064E-03  2888   0.125E+00    0.219E-01
DAV:   4    -0.353823531438E+02    0.54530E-03   -0.18359E-03  3143   0.391E-01    0.143E-01
DAV:   5    -0.353821900565E+02    0.16309E-03   -0.14302E-03  2945   0.808E-01    0.879E-02
DAV:   6    -0.353821287487E+02    0.61308E-04   -0.60033E-04  3304   0.576E-01    0.352E-02
DAV:   7    -0.353821351454E+02   -0.63967E-05   -0.21733E-04  2986   0.373E-01    0.320E-02
DAV:   8    -0.353821070855E+02    0.28060E-04   -0.74275E-05  3115   0.184E-01    0.172E-02
DAV:   9    -0.353821047125E+02    0.23730E-05   -0.22663E-05  3088   0.464E-02    0.964E-03
DAV:  10    -0.353821040423E+02    0.67023E-06   -0.67249E-06  1662   0.384E-02
   5 F= -.35382104E+02 E0= -.35365739E+02  d E =-.446149E-01
       N       E                     dE             d eps       ncg     rms          rms(c)
DAV:   1    -0.351703197847E+02    0.21178E+00   -0.22787E+02  2100   0.417E+01    0.964E-01
DAV:   2    -0.354624513249E+02   -0.29213E+00   -0.30462E+00  3216   0.136E+01    0.140E+00
DAV:   3    -0.354388981608E+02    0.23553E-01   -0.75225E-02  2920   0.427E+00    0.639E-01
DAV:   4    -0.354361861239E+02    0.27120E-02   -0.11705E-02  3151   0.788E-01    0.495E-01
DAV:   5    -0.354359028995E+02    0.28322E-03   -0.68098E-03  3470   0.217E+00    0.412E-01
DAV:   6    -0.354338885486E+02    0.20144E-02   -0.70078E-03  3526   0.222E+00    0.213E-01
DAV:   7    -0.354330518343E+02    0.83671E-03   -0.36988E-03  3113   0.115E+00    0.851E-02
DAV:   8    -0.354330621900E+02   -0.10356E-04   -0.18629E-03  2988   0.493E-01    0.546E-02
DAV:   9    -0.354330600283E+02    0.21617E-05   -0.28150E-04  2944   0.179E-01    0.486E-02
DAV:  10    -0.354330313227E+02    0.28706E-04   -0.67844E-05  2984   0.124E-01    0.220E-02
DAV:  11    -0.354330289993E+02    0.23234E-05   -0.65722E-05  3063   0.101E-01    0.842E-03
DAV:  12    -0.354330295518E+02   -0.55251E-06   -0.11465E-05  1806   0.526E-02    0.543E-03
DAV:  13    -0.354330300917E+02   -0.53988E-06   -0.32206E-06  1613   0.275E-02
   6 F= -.35433030E+02 E0= -.35416431E+02  d E =-.955409E-01
       N       E                     dE             d eps       ncg     rms          rms(c)
DAV:   1    -0.354147128965E+02    0.18317E-01   -0.45066E+01  2100   0.181E+01    0.345E-01
DAV:   2    -0.354571341615E+02   -0.42421E-01   -0.43972E-01  3188   0.482E+00    0.472E-01
DAV:   3    -0.354547232490E+02    0.24109E-02   -0.94392E-03  2895   0.148E+00    0.249E-01
DAV:   4    -0.354541052867E+02    0.61796E-03   -0.21983E-03  3112   0.409E-01    0.169E-01
DAV:   5    -0.354538992069E+02    0.20608E-03   -0.17442E-03  2923   0.917E-01    0.109E-01
DAV:   6    -0.354537748804E+02    0.12433E-03   -0.81459E-04  3134   0.607E-01    0.265E-02
DAV:   7    -0.354537873353E+02   -0.12455E-04   -0.26701E-04  2944   0.171E-01    0.293E-02
DAV:   8    -0.354537808900E+02    0.64453E-05   -0.36276E-05  3012   0.124E-01    0.218E-02
DAV:   9    -0.354537751260E+02    0.57640E-05   -0.17812E-05  2544   0.759E-02    0.119E-02
DAV:  10    -0.354537754576E+02   -0.33161E-06   -0.22976E-05  2157   0.611E-02    0.508E-03
DAV:  11    -0.354537757245E+02   -0.26688E-06   -0.35553E-06  1567   0.278E-02
   7 F= -.35453776E+02 E0= -.35436852E+02  d E =-.207456E-01
       N       E                     dE             d eps       ncg     rms          rms(c)
DAV:   1    -0.354524810101E+02    0.12944E-02   -0.27106E+00  2103   0.442E+00    0.712E-02
DAV:   2    -0.354545748873E+02   -0.20939E-02   -0.21394E-02  3109   0.934E-01    0.767E-02
DAV:   3    -0.354545297892E+02    0.45098E-04   -0.42437E-04  2933   0.303E-01    0.490E-02
DAV:   4    -0.354545127191E+02    0.17070E-04   -0.75025E-05  3133   0.192E-01    0.421E-02
DAV:   5    -0.354545122408E+02    0.47829E-06   -0.12731E-04  3507   0.304E-01    0.308E-02
DAV:   6    -0.354544866489E+02    0.25592E-04   -0.83525E-05  3337   0.235E-01    0.120E-02
DAV:   7    -0.354544856075E+02    0.10414E-05   -0.20332E-05  3134   0.546E-02    0.669E-03
DAV:   8    -0.354544846264E+02    0.98118E-06   -0.23791E-06  1572   0.129E-02
   8 F= -.35454485E+02 E0= -.35437467E+02  d E =-.214545E-01
       N       E                     dE             d eps       ncg     rms          rms(c)
DAV:   1    -0.354434229065E+02    0.11063E-01   -0.18171E+01  2102   0.122E+01    0.248E-01
DAV:   2    -0.354654054882E+02   -0.21983E-01   -0.22791E-01  3215   0.359E+00    0.373E-01
DAV:   3    -0.354637692409E+02    0.16362E-02   -0.53708E-03  2871   0.129E+00    0.193E-01
DAV:   4    -0.354635308383E+02    0.23840E-03   -0.14702E-03  3214   0.478E-01    0.132E-01
DAV:   5    -0.354635133392E+02    0.17499E-04   -0.10285E-03  3196   0.947E-01    0.113E-01
DAV:   6    -0.354632897069E+02    0.22363E-03   -0.91699E-04  3601   0.530E-01    0.457E-02
DAV:   7    -0.354632569959E+02    0.32711E-04   -0.27003E-04  3047   0.238E-01    0.204E-02
DAV:   8    -0.354632595467E+02   -0.25508E-05   -0.77935E-05  3102   0.873E-02    0.218E-02
DAV:   9    -0.354632520157E+02    0.75310E-05   -0.17553E-05  2151   0.794E-02    0.102E-02
DAV:  10    -0.354632512815E+02    0.73420E-06   -0.88300E-06  1944   0.436E-02
   9 F= -.35463251E+02 E0= -.35446064E+02  d E =-.876666E-02
       N       E                     dE             d eps       ncg     rms          rms(c)
DAV:   1    -0.354374180747E+02    0.25834E-01   -0.23923E+01  2103   0.140E+01    0.281E-01
DAV:   2    -0.354672599189E+02   -0.29842E-01   -0.30948E-01  3180   0.416E+00    0.426E-01
DAV:   3    -0.354650852167E+02    0.21747E-02   -0.69912E-03  2868   0.148E+00    0.220E-01
DAV:   4    -0.354647941288E+02    0.29109E-03   -0.17683E-03  3238   0.541E-01    0.156E-01
DAV:   5    -0.354647260566E+02    0.68072E-04   -0.11932E-03  3204   0.101E+00    0.131E-01
DAV:   6    -0.354644427295E+02    0.28333E-03   -0.12229E-03  3414   0.551E-01    0.552E-02
DAV:   7    -0.354644001326E+02    0.42597E-04   -0.37844E-04  2999   0.269E-01    0.238E-02
DAV:   8    -0.354644055676E+02   -0.54350E-05   -0.11659E-04  3111   0.121E-01    0.258E-02
DAV:   9    -0.354643960879E+02    0.94797E-05   -0.23597E-05  2383   0.950E-02    0.146E-02
DAV:  10    -0.354643936171E+02    0.24708E-05   -0.13203E-05  2327   0.602E-02    0.459E-03
DAV:  11    -0.354643945514E+02   -0.93429E-06   -0.71457E-06  1965   0.180E-02
  10 F= -.35464395E+02 E0= -.35446969E+02  d E =-.990993E-02
       N       E                     dE             d eps       ncg     rms          rms(c)
DAV:   1    -0.354627202230E+02    0.16734E-02   -0.27198E+00  2103   0.468E+00    0.931E-02
DAV:   2    -0.354654059762E+02   -0.26858E-02   -0.27844E-02  3150   0.126E+00    0.117E-01
DAV:   3    -0.354652422854E+02    0.16369E-03   -0.91539E-04  2903   0.603E-01    0.560E-02
DAV:   4    -0.354652302332E+02    0.12052E-04   -0.19040E-04  3151   0.279E-01    0.531E-02
DAV:   5    -0.354651951017E+02    0.35132E-04   -0.87451E-05  3166   0.173E-01    0.273E-02
DAV:   6    -0.354651972948E+02   -0.21931E-05   -0.96836E-05  3136   0.101E-01    0.158E-02
DAV:   7    -0.354651936275E+02    0.36673E-05   -0.18372E-05  2790   0.861E-02    0.535E-03
DAV:   8    -0.354651932055E+02    0.42192E-06   -0.43989E-06  1848   0.330E-02
  11 F= -.35465193E+02 E0= -.35447848E+02  d E =-.107086E-01
       N       E                     dE             d eps       ncg     rms          rms(c)
DAV:   1    -0.354601388099E+02    0.50548E-02   -0.62358E+00  2104   0.721E+00    0.140E-01
DAV:   2    -0.354678390810E+02   -0.77003E-02   -0.80225E-02  3183   0.212E+00    0.207E-01
DAV:   3    -0.354672961818E+02    0.54290E-03   -0.19493E-03  2832   0.805E-01    0.100E-01
DAV:   4    -0.354672418735E+02    0.54308E-04   -0.47556E-04  3197   0.289E-01    0.737E-02
DAV:   5    -0.354672101114E+02    0.31762E-04   -0.25594E-04  3014   0.460E-01    0.559E-02
DAV:   6    -0.354671660926E+02    0.44019E-04   -0.27584E-04  3464   0.302E-01    0.324E-02
DAV:   7    -0.354671484035E+02    0.17689E-04   -0.88936E-05  3084   0.171E-01    0.112E-02
DAV:   8    -0.354671496547E+02   -0.12512E-05   -0.39070E-05  2168   0.659E-02    0.127E-02
DAV:   9    -0.354671478301E+02    0.18247E-05   -0.80387E-06  2068   0.391E-02    0.820E-03
DAV:  10    -0.354671469684E+02    0.86171E-06   -0.25629E-06  1592   0.290E-02
  12 F= -.35467147E+02 E0= -.35449739E+02  d E =-.195376E-02
       N       E                     dE             d eps       ncg     rms          rms(c)
DAV:   1    -0.354671451669E+02    0.26631E-05   -0.45240E-02  2117   0.613E-01    0.114E-02
DAV:   2    -0.354671933200E+02   -0.48153E-04   -0.49734E-04  3152   0.163E-01    0.141E-02
DAV:   3    -0.354671908918E+02    0.24282E-05   -0.14962E-05  2030   0.739E-02    0.690E-03
DAV:   4    -0.354671907728E+02    0.11901E-06   -0.26881E-06  1546   0.348E-02
  13 F= -.35467191E+02 E0= -.35449789E+02  d E =-.199757E-02
       N       E                     dE             d eps       ncg     rms          rms(c)
DAV:   1    -0.354659747591E+02    0.12161E-02   -0.20730E+00  2104   0.421E+00    0.715E-02
DAV:   2    -0.354683324912E+02   -0.23577E-02   -0.24250E-02  3185   0.112E+00    0.971E-02
DAV:   3    -0.354682164189E+02    0.11607E-03   -0.51513E-04  2792   0.402E-01    0.484E-02
DAV:   4    -0.354682075147E+02    0.89042E-05   -0.12555E-04  3130   0.198E-01    0.401E-02
DAV:   5    -0.354681910438E+02    0.16471E-04   -0.62573E-05  3132   0.224E-01    0.266E-02
DAV:   6    -0.354681841096E+02    0.69341E-05   -0.85217E-05  3297   0.146E-01    0.167E-02
DAV:   7    -0.354681787917E+02    0.53179E-05   -0.25148E-05  3083   0.874E-02    0.515E-03
DAV:   8    -0.354681785287E+02    0.26298E-06   -0.63663E-06  1848   0.245E-02
  14 F= -.35468179E+02 E0= -.35450745E+02  d E =-.987756E-03
