 vasp.6.5.1 10Mar25 (build Mar 14 2026 15:48:08) complex                         
 executed on              LinuxNV date 2026.03.23  18:08:49
 running    1 mpi-ranks, with    1 threads/rank, on    1 nodes
 distrk:  each k-point on    1 cores,    1 groups
 distr:  one band on NCORE=   1 cores,    1 groups
 Offloading initialized ...    1 GPUs detected


--------------------------------------------------------------------------------------------------------


 INCAR:
   SYSTEM = Cu-Ag alloy CO adsorption (RPBE, matches CatHub)
   ENCUT = 450
   EDIFF = 1E-6
   ISMEAR = 0
   SIGMA = 0.1
   ALGO = Normal
   NELM = 200
   PREC = Normal
   GGA = RP
   IBRION = 2
   NSW = 200
   ISIF = 2
   EDIFFG = -0.03
   ISPIN = 1
   LREAL = Auto
   LORBIT = 11
   LWAVE = .FALSE.
   LCHARG = .FALSE.

 POTCAR:    PAW_PBE Cu 22Jun2005                  
 POTCAR:    PAW_PBE Ag 02Apr2005                  
 POTCAR:    PAW_PBE Cu 22Jun2005                  
 POTCAR:    PAW_PBE Ag 02Apr2005                  
 POTCAR:    PAW_PBE Cu 22Jun2005                  
 POTCAR:    PAW_PBE Ag 02Apr2005                  
 POTCAR:    PAW_PBE Cu 22Jun2005                  
 POTCAR:    PAW_PBE Ag 02Apr2005                  
 POTCAR:    PAW_PBE Cu 22Jun2005                  
   SHA256 =  0e71e558f37a4e8407882b4609ceaae59938afaad9ced71dfe8490308a0ab630 Cu/POTCAR             
   COPYR  = (c) Copyright 22Jun2005 Georg Kresse                                                    
   COPYR  = This file is part of the software VASP. Any use, copying, and all other rights are regul
   COPYR  = If you do not have a valid VASP license, you may not use, copy or distribute this file. 
   VRHFIN =Cu: d10 p1                                                                               
   LEXCH  = PE                                                                                      
   EATOM  =  1390.9808 eV,  102.2342 Ry                                                             
                                                                                                    
   TITEL  = PAW_PBE Cu 22Jun2005                                                                    
   LULTRA =        F    use ultrasoft PP ?                                                          
   IUNSCR =        1    unscreen: 0-lin 1-nonlin 2-no                                               
   RPACOR =    2.000    partial core radius                                                         
   POMASS =   63.546; ZVAL   =   11.000    mass and valenz                                          
   RCORE  =    2.300    outmost cutoff radius                                                       
   RWIGS  =    2.200; RWIGS  =    1.164    wigner-seitz radius (au A)                               
   ENMAX  =  295.446; ENMIN  =  221.585 eV                                                          
   ICORE  =        3    local potential                                                             
   LCOR   =        T    correct aug charges                                                         
   LPAW   =        T    paw PP                                                                      
   EAUG   =  586.980                                                                                
   DEXC   =    0.000                                                                                
   RMAX   =    2.344    core radius for proj-oper                                                   
   RAUG   =    1.300    factor for augmentation sphere                                              
   RDEP   =    2.302    radius for radial grids                                                     
   RDEPT  =    1.771    core radius for aug-charge                                                  
                                                                                                    
   Atomic configuration                                                                             
    9 entries                                                                                       
     n  l   j            E        occ.                                                              
     1  0  0.50     -8850.2468   2.0000                                                             
     2  0  0.50     -1062.3498   2.0000                                                             
     2  1  1.50      -916.8226   6.0000                                                             
     3  0  0.50      -114.6929   2.0000                                                             
     3  1  1.50       -72.1325   6.0000                                                             
     3  2  2.50        -5.0394  10.0000                                                             
     4  0  0.50        -4.6097   1.0000                                                             
     4  1  0.50        -4.0817   0.0000                                                             
     4  3  2.50        -1.3606   0.0000                                                             
   Description                                                                                      
     l       E           TYP  RCUT    TYP  RCUT                                                     
     2     -5.0393973     23  2.200                                                                 
     2     10.8846608     23  2.200                                                                 
     0     -4.6097109     23  2.200                                                                 
     0      8.2520465     23  2.200                                                                 
     1     -2.7211652     23  2.200                                                                 
     1     21.7055443     23  2.200                                                                 
     3      2.7211652     23  2.300                                                                 
  local pseudopotential read in
  partial core-charges read in
  partial kinetic energy density read in
  atomic valenz-charges read in
  non local Contribution for L=            2  read in
    real space projection operators read in
  non local Contribution for L=            2  read in
    real space projection operators read in
  non local Contribution for L=            0  read in
    real space projection operators read in
  non local Contribution for L=            0  read in
    real space projection operators read in
  non local Contribution for L=            1  read in
    real space projection operators read in
  non local Contribution for L=            1  read in
    real space projection operators read in
    PAW grid and wavefunctions read in
 
   number of l-projection  operators is LMAX  =            6
   number of lm-projection operators is LMMAX =           18
 
 POTCAR:    PAW_PBE Ag 02Apr2005                  
   SHA256 =  6550cfa3543261e132c169e1b98a529204624d72be14e2da2e0242bcb74a174d Ag/POTCAR             
   COPYR  = (c) Copyright 02Apr2005 Georg Kresse                                                    
   COPYR  = This file is part of the software VASP. Any use, copying, and all other rights are regul
   COPYR  = If you do not have a valid VASP license, you may not use, copy or distribute this file. 
   VRHFIN =Ag : s1 d10                                                                              
   LEXCH  = PE                                                                                      
   EATOM  =  1037.2675 eV,   76.2370 Ry                                                             
                                                                                                    
   TITEL  = PAW_PBE Ag 02Apr2005                                                                    
   LULTRA =        F    use ultrasoft PP ?                                                          
   IUNSCR =        1    unscreen: 0-lin 1-nonlin 2-no                                               
   RPACOR =    2.000    partial core radius                                                         
   POMASS =  107.868; ZVAL   =   11.000    mass and valenz                                          
   RCORE  =    2.500    outmost cutoff radius                                                       
   RWIGS  =    2.840; RWIGS  =    1.503    wigner-seitz radius (au A)                               
   ENMAX  =  249.844; ENMIN  =  187.383 eV                                                          
   ICORE  =        3    local potential                                                             
   LCOR   =        T    correct aug charges                                                         
   LPAW   =        T    paw PP                                                                      
   EAUG   =  412.496                                                                                
   DEXC   =    0.000                                                                                
   RMAX   =    2.560    core radius for proj-oper                                                   
   RAUG   =    1.300    factor for augmentation sphere                                              
   RDEP   =    2.576    radius for radial grids                                                     
   RDEPT  =    2.072    core radius for aug-charge                                                  
                                                                                                    
   Atomic configuration                                                                             
   12 entries                                                                                       
     n  l   j            E        occ.                                                              
     1  0  0.50    -25324.9161   2.0000                                                             
     2  0  0.50     -3728.5341   2.0000                                                             
     2  1  1.50     -3344.0404   6.0000                                                             
     3  0  0.50      -683.5581   2.0000                                                             
     3  1  1.50      -557.3225   6.0000                                                             
     3  2  2.50      -358.3853  10.0000                                                             
     4  0  0.50       -95.0341   2.0000                                                             
     4  1  1.50       -58.5511   6.0000                                                             
     4  2  2.50        -7.4440  10.0000                                                             
     5  0  0.50        -4.4045   1.0000                                                             
     5  1  0.50        -1.3606   0.0000                                                             
     4  3  2.50        -1.3606   0.0000                                                             
   Description                                                                                      
     l       E           TYP  RCUT    TYP  RCUT                                                     
     2     -7.4439781     23  2.400                                                                 
     2     -8.8045607     23  2.400                                                                 
     0     -4.4044681     23  2.400                                                                 
     0      1.9520038     23  2.400                                                                 
     1     -1.3605826     23  2.500                                                                 
     1     27.2116520     23  2.500                                                                 
     3     -4.0817478     23  2.400                                                                 
  local pseudopotential read in
  partial core-charges read in
  partial kinetic energy density read in
  atomic valenz-charges read in
  non local Contribution for L=            2  read in
    real space projection operators read in
  non local Contribution for L=            2  read in
    real space projection operators read in
  non local Contribution for L=            0  read in
    real space projection operators read in
  non local Contribution for L=            0  read in
    real space projection operators read in
  non local Contribution for L=            1  read in
    real space projection operators read in
  non local Contribution for L=            1  read in
    real space projection operators read in
    PAW grid and wavefunctions read in
 
   number of l-projection  operators is LMAX  =            6
   number of lm-projection operators is LMMAX =           18
 
 POTCAR:    PAW_PBE Cu 22Jun2005                  
   SHA256 =  0e71e558f37a4e8407882b4609ceaae59938afaad9ced71dfe8490308a0ab630 Cu/POTCAR             
   COPYR  = (c) Copyright 22Jun2005 Georg Kresse                                                    
   COPYR  = This file is part of the software VASP. Any use, copying, and all other rights are regul
   COPYR  = If you do not have a valid VASP license, you may not use, copy or distribute this file. 
   VRHFIN =Cu: d10 p1                                                                               
   LEXCH  = PE                                                                                      
   EATOM  =  1390.9808 eV,  102.2342 Ry                                                             
                                                                                                    
   TITEL  = PAW_PBE Cu 22Jun2005                                                                    
   LULTRA =        F    use ultrasoft PP ?                                                          
   IUNSCR =        1    unscreen: 0-lin 1-nonlin 2-no                                               
   RPACOR =    2.000    partial core radius                                                         
   POMASS =   63.546; ZVAL   =   11.000    mass and valenz                                          
   RCORE  =    2.300    outmost cutoff radius                                                       
   RWIGS  =    2.200; RWIGS  =    1.164    wigner-seitz radius (au A)                               
   ENMAX  =  295.446; ENMIN  =  221.585 eV                                                          
   ICORE  =        3    local potential                                                             
   LCOR   =        T    correct aug charges                                                         
   LPAW   =        T    paw PP                                                                      
   EAUG   =  586.980                                                                                
   DEXC   =    0.000                                                                                
   RMAX   =    2.344    core radius for proj-oper                                                   
   RAUG   =    1.300    factor for augmentation sphere                                              
   RDEP   =    2.302    radius for radial grids                                                     
   RDEPT  =    1.771    core radius for aug-charge                                                  
                                                                                                    
   Atomic configuration                                                                             
    9 entries                                                                                       
     n  l   j            E        occ.                                                              
     1  0  0.50     -8850.2468   2.0000                                                             
     2  0  0.50     -1062.3498   2.0000                                                             
     2  1  1.50      -916.8226   6.0000                                                             
     3  0  0.50      -114.6929   2.0000                                                             
     3  1  1.50       -72.1325   6.0000                                                             
     3  2  2.50        -5.0394  10.0000                                                             
     4  0  0.50        -4.6097   1.0000                                                             
     4  1  0.50        -4.0817   0.0000                                                             
     4  3  2.50        -1.3606   0.0000                                                             
   Description                                                                                      
     l       E           TYP  RCUT    TYP  RCUT                                                     
     2     -5.0393973     23  2.200                                                                 
     2     10.8846608     23  2.200                                                                 
     0     -4.6097109     23  2.200                                                                 
     0      8.2520465     23  2.200                                                                 
     1     -2.7211652     23  2.200                                                                 
     1     21.7055443     23  2.200                                                                 
     3      2.7211652     23  2.300                                                                 
  local pseudopotential read in
  partial core-charges read in
  partial kinetic energy density read in
  atomic valenz-charges read in
  non local Contribution for L=            2  read in
    real space projection operators read in
  non local Contribution for L=            2  read in
    real space projection operators read in
  non local Contribution for L=            0  read in
    real space projection operators read in
  non local Contribution for L=            0  read in
    real space projection operators read in
  non local Contribution for L=            1  read in
    real space projection operators read in
  non local Contribution for L=            1  read in
    real space projection operators read in
    PAW grid and wavefunctions read in
 
   number of l-projection  operators is LMAX  =            6
   number of lm-projection operators is LMMAX =           18
 
 POTCAR:    PAW_PBE Ag 02Apr2005                  
   SHA256 =  6550cfa3543261e132c169e1b98a529204624d72be14e2da2e0242bcb74a174d Ag/POTCAR             
   COPYR  = (c) Copyright 02Apr2005 Georg Kresse                                                    
   COPYR  = This file is part of the software VASP. Any use, copying, and all other rights are regul
   COPYR  = If you do not have a valid VASP license, you may not use, copy or distribute this file. 
   VRHFIN =Ag : s1 d10                                                                              
   LEXCH  = PE                                                                                      
   EATOM  =  1037.2675 eV,   76.2370 Ry                                                             
                                                                                                    
   TITEL  = PAW_PBE Ag 02Apr2005                                                                    
   LULTRA =        F    use ultrasoft PP ?                                                          
   IUNSCR =        1    unscreen: 0-lin 1-nonlin 2-no                                               
   RPACOR =    2.000    partial core radius                                                         
   POMASS =  107.868; ZVAL   =   11.000    mass and valenz                                          
   RCORE  =    2.500    outmost cutoff radius                                                       
   RWIGS  =    2.840; RWIGS  =    1.503    wigner-seitz radius (au A)                               
   ENMAX  =  249.844; ENMIN  =  187.383 eV                                                          
   ICORE  =        3    local potential                                                             
   LCOR   =        T    correct aug charges                                                         
   LPAW   =        T    paw PP                                                                      
   EAUG   =  412.496                                                                                
   DEXC   =    0.000                                                                                
   RMAX   =    2.560    core radius for proj-oper                                                   
   RAUG   =    1.300    factor for augmentation sphere                                              
   RDEP   =    2.576    radius for radial grids                                                     
   RDEPT  =    2.072    core radius for aug-charge                                                  
                                                                                                    
   Atomic configuration                                                                             
   12 entries                                                                                       
     n  l   j            E        occ.                                                              
     1  0  0.50    -25324.9161   2.0000                                                             
     2  0  0.50     -3728.5341   2.0000                                                             
     2  1  1.50     -3344.0404   6.0000                                                             
     3  0  0.50      -683.5581   2.0000                                                             
     3  1  1.50      -557.3225   6.0000                                                             
     3  2  2.50      -358.3853  10.0000                                                             
     4  0  0.50       -95.0341   2.0000                                                             
     4  1  1.50       -58.5511   6.0000                                                             
     4  2  2.50        -7.4440  10.0000                                                             
     5  0  0.50        -4.4045   1.0000                                                             
     5  1  0.50        -1.3606   0.0000                                                             
     4  3  2.50        -1.3606   0.0000                                                             
   Description                                                                                      
     l       E           TYP  RCUT    TYP  RCUT                                                     
     2     -7.4439781     23  2.400                                                                 
     2     -8.8045607     23  2.400                                                                 
     0     -4.4044681     23  2.400                                                                 
     0      1.9520038     23  2.400                                                                 
     1     -1.3605826     23  2.500                                                                 
     1     27.2116520     23  2.500                                                                 
     3     -4.0817478     23  2.400                                                                 
  local pseudopotential read in
  partial core-charges read in
  partial kinetic energy density read in
  atomic valenz-charges read in
  non local Contribution for L=            2  read in
    real space projection operators read in
  non local Contribution for L=            2  read in
    real space projection operators read in
  non local Contribution for L=            0  read in
    real space projection operators read in
  non local Contribution for L=            0  read in
    real space projection operators read in
  non local Contribution for L=            1  read in
    real space projection operators read in
  non local Contribution for L=            1  read in
    real space projection operators read in
    PAW grid and wavefunctions read in
 
   number of l-projection  operators is LMAX  =            6
   number of lm-projection operators is LMMAX =           18
 
 POTCAR:    PAW_PBE Cu 22Jun2005                  
   SHA256 =  0e71e558f37a4e8407882b4609ceaae59938afaad9ced71dfe8490308a0ab630 Cu/POTCAR             
   COPYR  = (c) Copyright 22Jun2005 Georg Kresse                                                    
   COPYR  = This file is part of the software VASP. Any use, copying, and all other rights are regul
   COPYR  = If you do not have a valid VASP license, you may not use, copy or distribute this file. 
   VRHFIN =Cu: d10 p1                                                                               
   LEXCH  = PE                                                                                      
   EATOM  =  1390.9808 eV,  102.2342 Ry                                                             
                                                                                                    
   TITEL  = PAW_PBE Cu 22Jun2005                                                                    
   LULTRA =        F    use ultrasoft PP ?                                                          
   IUNSCR =        1    unscreen: 0-lin 1-nonlin 2-no                                               
   RPACOR =    2.000    partial core radius                                                         
   POMASS =   63.546; ZVAL   =   11.000    mass and valenz                                          
   RCORE  =    2.300    outmost cutoff radius                                                       
   RWIGS  =    2.200; RWIGS  =    1.164    wigner-seitz radius (au A)                               
   ENMAX  =  295.446; ENMIN  =  221.585 eV                                                          
   ICORE  =        3    local potential                                                             
   LCOR   =        T    correct aug charges                                                         
   LPAW   =        T    paw PP                                                                      
   EAUG   =  586.980                                                                                
   DEXC   =    0.000                                                                                
   RMAX   =    2.344    core radius for proj-oper                                                   
   RAUG   =    1.300    factor for augmentation sphere                                              
   RDEP   =    2.302    radius for radial grids                                                     
   RDEPT  =    1.771    core radius for aug-charge                                                  
                                                                                                    
   Atomic configuration                                                                             
    9 entries                                                                                       
     n  l   j            E        occ.                                                              
     1  0  0.50     -8850.2468   2.0000                                                             
     2  0  0.50     -1062.3498   2.0000                                                             
     2  1  1.50      -916.8226   6.0000                                                             
     3  0  0.50      -114.6929   2.0000                                                             
     3  1  1.50       -72.1325   6.0000                                                             
     3  2  2.50        -5.0394  10.0000                                                             
     4  0  0.50        -4.6097   1.0000                                                             
     4  1  0.50        -4.0817   0.0000                                                             
     4  3  2.50        -1.3606   0.0000                                                             
   Description                                                                                      
     l       E           TYP  RCUT    TYP  RCUT                                                     
     2     -5.0393973     23  2.200                                                                 
     2     10.8846608     23  2.200                                                                 
     0     -4.6097109     23  2.200                                                                 
     0      8.2520465     23  2.200                                                                 
     1     -2.7211652     23  2.200                                                                 
     1     21.7055443     23  2.200                                                                 
     3      2.7211652     23  2.300                                                                 
  local pseudopotential read in
  partial core-charges read in
  partial kinetic energy density read in
  atomic valenz-charges read in
  non local Contribution for L=            2  read in
    real space projection operators read in
  non local Contribution for L=            2  read in
    real space projection operators read in
  non local Contribution for L=            0  read in
    real space projection operators read in
  non local Contribution for L=            0  read in
    real space projection operators read in
  non local Contribution for L=            1  read in
    real space projection operators read in
  non local Contribution for L=            1  read in
    real space projection operators read in
    PAW grid and wavefunctions read in
 
   number of l-projection  operators is LMAX  =            6
   number of lm-projection operators is LMMAX =           18
 
 POTCAR:    PAW_PBE Ag 02Apr2005                  
   SHA256 =  6550cfa3543261e132c169e1b98a529204624d72be14e2da2e0242bcb74a174d Ag/POTCAR             
   COPYR  = (c) Copyright 02Apr2005 Georg Kresse                                                    
   COPYR  = This file is part of the software VASP. Any use, copying, and all other rights are regul
   COPYR  = If you do not have a valid VASP license, you may not use, copy or distribute this file. 
   VRHFIN =Ag : s1 d10                                                                              
   LEXCH  = PE                                                                                      
   EATOM  =  1037.2675 eV,   76.2370 Ry                                                             
                                                                                                    
   TITEL  = PAW_PBE Ag 02Apr2005                                                                    
   LULTRA =        F    use ultrasoft PP ?                                                          
   IUNSCR =        1    unscreen: 0-lin 1-nonlin 2-no                                               
   RPACOR =    2.000    partial core radius                                                         
   POMASS =  107.868; ZVAL   =   11.000    mass and valenz                                          
   RCORE  =    2.500    outmost cutoff radius                                                       
   RWIGS  =    2.840; RWIGS  =    1.503    wigner-seitz radius (au A)                               
   ENMAX  =  249.844; ENMIN  =  187.383 eV                                                          
   ICORE  =        3    local potential                                                             
   LCOR   =        T    correct aug charges                                                         
   LPAW   =        T    paw PP                                                                      
   EAUG   =  412.496                                                                                
   DEXC   =    0.000                                                                                
   RMAX   =    2.560    core radius for proj-oper                                                   
   RAUG   =    1.300    factor for augmentation sphere                                              
   RDEP   =    2.576    radius for radial grids                                                     
   RDEPT  =    2.072    core radius for aug-charge                                                  
                                                                                                    
   Atomic configuration                                                                             
   12 entries                                                                                       
     n  l   j            E        occ.                                                              
     1  0  0.50    -25324.9161   2.0000                                                             
     2  0  0.50     -3728.5341   2.0000                                                             
     2  1  1.50     -3344.0404   6.0000                                                             
     3  0  0.50      -683.5581   2.0000                                                             
     3  1  1.50      -557.3225   6.0000                                                             
     3  2  2.50      -358.3853  10.0000                                                             
     4  0  0.50       -95.0341   2.0000                                                             
     4  1  1.50       -58.5511   6.0000                                                             
     4  2  2.50        -7.4440  10.0000                                                             
     5  0  0.50        -4.4045   1.0000                                                             
     5  1  0.50        -1.3606   0.0000                                                             
     4  3  2.50        -1.3606   0.0000                                                             
   Description                                                                                      
     l       E           TYP  RCUT    TYP  RCUT                                                     
     2     -7.4439781     23  2.400                                                                 
     2     -8.8045607     23  2.400                                                                 
     0     -4.4044681     23  2.400                                                                 
     0      1.9520038     23  2.400                                                                 
     1     -1.3605826     23  2.500                                                                 
     1     27.2116520     23  2.500                                                                 
     3     -4.0817478     23  2.400                                                                 
  local pseudopotential read in
  partial core-charges read in
  partial kinetic energy density read in
  atomic valenz-charges read in
  non local Contribution for L=            2  read in
    real space projection operators read in
  non local Contribution for L=            2  read in
    real space projection operators read in
  non local Contribution for L=            0  read in
    real space projection operators read in
  non local Contribution for L=            0  read in
    real space projection operators read in
  non local Contribution for L=            1  read in
    real space projection operators read in
  non local Contribution for L=            1  read in
    real space projection operators read in
    PAW grid and wavefunctions read in
 
   number of l-projection  operators is LMAX  =            6
   number of lm-projection operators is LMMAX =           18
 
 POTCAR:    PAW_PBE Cu 22Jun2005                  
   SHA256 =  0e71e558f37a4e8407882b4609ceaae59938afaad9ced71dfe8490308a0ab630 Cu/POTCAR             
   COPYR  = (c) Copyright 22Jun2005 Georg Kresse                                                    
   COPYR  = This file is part of the software VASP. Any use, copying, and all other rights are regul
   COPYR  = If you do not have a valid VASP license, you may not use, copy or distribute this file. 
   VRHFIN =Cu: d10 p1                                                                               
   LEXCH  = PE                                                                                      
   EATOM  =  1390.9808 eV,  102.2342 Ry                                                             
                                                                                                    
   TITEL  = PAW_PBE Cu 22Jun2005                                                                    
   LULTRA =        F    use ultrasoft PP ?                                                          
   IUNSCR =        1    unscreen: 0-lin 1-nonlin 2-no                                               
   RPACOR =    2.000    partial core radius                                                         
   POMASS =   63.546; ZVAL   =   11.000    mass and valenz                                          
   RCORE  =    2.300    outmost cutoff radius                                                       
   RWIGS  =    2.200; RWIGS  =    1.164    wigner-seitz radius (au A)                               
   ENMAX  =  295.446; ENMIN  =  221.585 eV                                                          
   ICORE  =        3    local potential                                                             
   LCOR   =        T    correct aug charges                                                         
   LPAW   =        T    paw PP                                                                      
   EAUG   =  586.980                                                                                
   DEXC   =    0.000                                                                                
   RMAX   =    2.344    core radius for proj-oper                                                   
   RAUG   =    1.300    factor for augmentation sphere                                              
   RDEP   =    2.302    radius for radial grids                                                     
   RDEPT  =    1.771    core radius for aug-charge                                                  
                                                                                                    
   Atomic configuration                                                                             
    9 entries                                                                                       
     n  l   j            E        occ.                                                              
     1  0  0.50     -8850.2468   2.0000                                                             
     2  0  0.50     -1062.3498   2.0000                                                             
     2  1  1.50      -916.8226   6.0000                                                             
     3  0  0.50      -114.6929   2.0000                                                             
     3  1  1.50       -72.1325   6.0000                                                             
     3  2  2.50        -5.0394  10.0000                                                             
     4  0  0.50        -4.6097   1.0000                                                             
     4  1  0.50        -4.0817   0.0000                                                             
     4  3  2.50        -1.3606   0.0000                                                             
   Description                                                                                      
     l       E           TYP  RCUT    TYP  RCUT                                                     
     2     -5.0393973     23  2.200                                                                 
     2     10.8846608     23  2.200                                                                 
     0     -4.6097109     23  2.200                                                                 
     0      8.2520465     23  2.200                                                                 
     1     -2.7211652     23  2.200                                                                 
     1     21.7055443     23  2.200                                                                 
     3      2.7211652     23  2.300                                                                 
  local pseudopotential read in
  partial core-charges read in
  partial kinetic energy density read in
  atomic valenz-charges read in
  non local Contribution for L=            2  read in
    real space projection operators read in
  non local Contribution for L=            2  read in
    real space projection operators read in
  non local Contribution for L=            0  read in
    real space projection operators read in
  non local Contribution for L=            0  read in
    real space projection operators read in
  non local Contribution for L=            1  read in
    real space projection operators read in
  non local Contribution for L=            1  read in
    real space projection operators read in
    PAW grid and wavefunctions read in
 
   number of l-projection  operators is LMAX  =            6
   number of lm-projection operators is LMMAX =           18
 
 POTCAR:    PAW_PBE Ag 02Apr2005                  
   SHA256 =  6550cfa3543261e132c169e1b98a529204624d72be14e2da2e0242bcb74a174d Ag/POTCAR             
   COPYR  = (c) Copyright 02Apr2005 Georg Kresse                                                    
   COPYR  = This file is part of the software VASP. Any use, copying, and all other rights are regul
   COPYR  = If you do not have a valid VASP license, you may not use, copy or distribute this file. 
   VRHFIN =Ag : s1 d10                                                                              
   LEXCH  = PE                                                                                      
   EATOM  =  1037.2675 eV,   76.2370 Ry                                                             
                                                                                                    
   TITEL  = PAW_PBE Ag 02Apr2005                                                                    
   LULTRA =        F    use ultrasoft PP ?                                                          
   IUNSCR =        1    unscreen: 0-lin 1-nonlin 2-no                                               
   RPACOR =    2.000    partial core radius                                                         
   POMASS =  107.868; ZVAL   =   11.000    mass and valenz                                          
   RCORE  =    2.500    outmost cutoff radius                                                       
   RWIGS  =    2.840; RWIGS  =    1.503    wigner-seitz radius (au A)                               
   ENMAX  =  249.844; ENMIN  =  187.383 eV                                                          
   ICORE  =        3    local potential                                                             
   LCOR   =        T    correct aug charges                                                         
   LPAW   =        T    paw PP                                                                      
   EAUG   =  412.496                                                                                
   DEXC   =    0.000                                                                                
   RMAX   =    2.560    core radius for proj-oper                                                   
   RAUG   =    1.300    factor for augmentation sphere                                              
   RDEP   =    2.576    radius for radial grids                                                     
   RDEPT  =    2.072    core radius for aug-charge                                                  
                                                                                                    
   Atomic configuration                                                                             
   12 entries                                                                                       
     n  l   j            E        occ.                                                              
     1  0  0.50    -25324.9161   2.0000                                                             
     2  0  0.50     -3728.5341   2.0000                                                             
     2  1  1.50     -3344.0404   6.0000                                                             
     3  0  0.50      -683.5581   2.0000                                                             
     3  1  1.50      -557.3225   6.0000                                                             
     3  2  2.50      -358.3853  10.0000                                                             
     4  0  0.50       -95.0341   2.0000                                                             
     4  1  1.50       -58.5511   6.0000                                                             
     4  2  2.50        -7.4440  10.0000                                                             
     5  0  0.50        -4.4045   1.0000                                                             
     5  1  0.50        -1.3606   0.0000                                                             
     4  3  2.50        -1.3606   0.0000                                                             
   Description                                                                                      
     l       E           TYP  RCUT    TYP  RCUT                                                     
     2     -7.4439781     23  2.400                                                                 
     2     -8.8045607     23  2.400                                                                 
     0     -4.4044681     23  2.400                                                                 
     0      1.9520038     23  2.400                                                                 
     1     -1.3605826     23  2.500                                                                 
     1     27.2116520     23  2.500                                                                 
     3     -4.0817478     23  2.400                                                                 
  local pseudopotential read in
  partial core-charges read in
  partial kinetic energy density read in
  atomic valenz-charges read in
  non local Contribution for L=            2  read in
    real space projection operators read in
  non local Contribution for L=            2  read in
    real space projection operators read in
  non local Contribution for L=            0  read in
    real space projection operators read in
  non local Contribution for L=            0  read in
    real space projection operators read in
  non local Contribution for L=            1  read in
    real space projection operators read in
  non local Contribution for L=            1  read in
    real space projection operators read in
    PAW grid and wavefunctions read in
 
   number of l-projection  operators is LMAX  =            6
   number of lm-projection operators is LMMAX =           18
 
 Optimization of the real space projectors (new method)

 maximal supplied QI-value         = 16.25
 optimisation between [QCUT,QGAM] = [ 10.73, 21.61] = [ 32.22,130.83] Ry 
 Optimized for a Real-space Cutoff    1.42 Angstroem

   l    n(q)    QCUT    max X(q) W(low)/X(q) W(high)/X(q)  e(spline) 
   2      8    10.726     4.610    0.15E-03    0.25E-03    0.14E-06
   2      8    10.726     8.522    0.25E-03    0.43E-03    0.27E-06
   0      9    10.726    51.609    0.94E-04    0.10E-03    0.12E-06
   0      9    10.726    27.747    0.85E-04    0.96E-04    0.11E-06
   1      9    10.726    20.408    0.25E-03    0.14E-03    0.12E-06
   1      9    10.726    13.425    0.22E-03    0.13E-03    0.11E-06
 Optimization of the real space projectors (new method)

 maximal supplied QI-value         = 15.12
 optimisation between [QCUT,QGAM] = [ 10.73, 21.62] = [ 32.26,130.87] Ry 
 Optimized for a Real-space Cutoff    1.42 Angstroem

   l    n(q)    QCUT    max X(q) W(low)/X(q) W(high)/X(q)  e(spline) 
   2      8    10.734    53.897    0.46E-03    0.48E-03    0.17E-06
   2      8    10.734    52.416    0.47E-03    0.50E-03    0.17E-06
   0      9    10.734   122.045    0.16E-03    0.13E-03    0.44E-07
   0      9    10.734    73.629    0.16E-03    0.13E-03    0.43E-07
   1      9    10.734    15.255    0.66E-04    0.32E-03    0.15E-06
   1      9    10.734     9.562    0.55E-04    0.26E-03    0.12E-06
 Optimization of the real space projectors (new method)

 maximal supplied QI-value         = 16.25
 optimisation between [QCUT,QGAM] = [ 10.73, 21.61] = [ 32.22,130.83] Ry 
 Optimized for a Real-space Cutoff    1.42 Angstroem

   l    n(q)    QCUT    max X(q) W(low)/X(q) W(high)/X(q)  e(spline) 
   2      8    10.726     4.610    0.15E-03    0.25E-03    0.14E-06
   2      8    10.726     8.522    0.25E-03    0.43E-03    0.27E-06
   0      9    10.726    51.609    0.94E-04    0.10E-03    0.12E-06
   0      9    10.726    27.747    0.85E-04    0.96E-04    0.11E-06
   1      9    10.726    20.408    0.25E-03    0.14E-03    0.12E-06
   1      9    10.726    13.425    0.22E-03    0.13E-03    0.11E-06
 Optimization of the real space projectors (new method)

 maximal supplied QI-value         = 15.12
 optimisation between [QCUT,QGAM] = [ 10.73, 21.62] = [ 32.26,130.87] Ry 
 Optimized for a Real-space Cutoff    1.42 Angstroem

   l    n(q)    QCUT    max X(q) W(low)/X(q) W(high)/X(q)  e(spline) 
   2      8    10.734    53.897    0.46E-03    0.48E-03    0.17E-06
   2      8    10.734    52.416    0.47E-03    0.50E-03    0.17E-06
   0      9    10.734   122.045    0.16E-03    0.13E-03    0.44E-07
   0      9    10.734    73.629    0.16E-03    0.13E-03    0.43E-07
   1      9    10.734    15.255    0.66E-04    0.32E-03    0.15E-06
   1      9    10.734     9.562    0.55E-04    0.26E-03    0.12E-06
 Optimization of the real space projectors (new method)

 maximal supplied QI-value         = 16.25
 optimisation between [QCUT,QGAM] = [ 10.73, 21.61] = [ 32.22,130.83] Ry 
 Optimized for a Real-space Cutoff    1.42 Angstroem

   l    n(q)    QCUT    max X(q) W(low)/X(q) W(high)/X(q)  e(spline) 
   2      8    10.726     4.610    0.15E-03    0.25E-03    0.14E-06
   2      8    10.726     8.522    0.25E-03    0.43E-03    0.27E-06
   0      9    10.726    51.609    0.94E-04    0.10E-03    0.12E-06
   0      9    10.726    27.747    0.85E-04    0.96E-04    0.11E-06
   1      9    10.726    20.408    0.25E-03    0.14E-03    0.12E-06
   1      9    10.726    13.425    0.22E-03    0.13E-03    0.11E-06
 Optimization of the real space projectors (new method)

 maximal supplied QI-value         = 15.12
 optimisation between [QCUT,QGAM] = [ 10.73, 21.62] = [ 32.26,130.87] Ry 
 Optimized for a Real-space Cutoff    1.42 Angstroem

   l    n(q)    QCUT    max X(q) W(low)/X(q) W(high)/X(q)  e(spline) 
   2      8    10.734    53.897    0.46E-03    0.48E-03    0.17E-06
   2      8    10.734    52.416    0.47E-03    0.50E-03    0.17E-06
   0      9    10.734   122.045    0.16E-03    0.13E-03    0.44E-07
   0      9    10.734    73.629    0.16E-03    0.13E-03    0.43E-07
   1      9    10.734    15.255    0.66E-04    0.32E-03    0.15E-06
   1      9    10.734     9.562    0.55E-04    0.26E-03    0.12E-06
 Optimization of the real space projectors (new method)

 maximal supplied QI-value         = 16.25
 optimisation between [QCUT,QGAM] = [ 10.73, 21.61] = [ 32.22,130.83] Ry 
 Optimized for a Real-space Cutoff    1.42 Angstroem

   l    n(q)    QCUT    max X(q) W(low)/X(q) W(high)/X(q)  e(spline) 
   2      8    10.726     4.610    0.15E-03    0.25E-03    0.14E-06
   2      8    10.726     8.522    0.25E-03    0.43E-03    0.27E-06
   0      9    10.726    51.609    0.94E-04    0.10E-03    0.12E-06
   0      9    10.726    27.747    0.85E-04    0.96E-04    0.11E-06
   1      9    10.726    20.408    0.25E-03    0.14E-03    0.12E-06
   1      9    10.726    13.425    0.22E-03    0.13E-03    0.11E-06
 Optimization of the real space projectors (new method)

 maximal supplied QI-value         = 15.12
 optimisation between [QCUT,QGAM] = [ 10.73, 21.62] = [ 32.26,130.87] Ry 
 Optimized for a Real-space Cutoff    1.42 Angstroem

   l    n(q)    QCUT    max X(q) W(low)/X(q) W(high)/X(q)  e(spline) 
   2      8    10.734    53.897    0.46E-03    0.48E-03    0.17E-06
   2      8    10.734    52.416    0.47E-03    0.50E-03    0.17E-06
   0      9    10.734   122.045    0.16E-03    0.13E-03    0.44E-07
   0      9    10.734    73.629    0.16E-03    0.13E-03    0.43E-07
   1      9    10.734    15.255    0.66E-04    0.32E-03    0.15E-06
   1      9    10.734     9.562    0.55E-04    0.26E-03    0.12E-06
 -----------------------------------------------------------------------------
|                                                                             |
|               ----> ADVICE to this user running VASP <----                  |
|                                                                             |
|     You enforced a specific xc type in the INCAR file but a different       |
|     type was found in the POTCAR file.                                      |
|     I HOPE YOU KNOW WHAT YOU ARE DOING!                                     |
|                                                                             |
 -----------------------------------------------------------------------------

  PAW_PBE Cu 22Jun2005                  :
 energy of atom  1       EATOM=-1390.9808
 kinetic energy error for atom=    0.0097 (will be added to EATOM!!)
  PAW_PBE Ag 02Apr2005                  :
 energy of atom  2       EATOM=-1037.2675
 kinetic energy error for atom=    0.0055 (will be added to EATOM!!)
  PAW_PBE Cu 22Jun2005                  :
 energy of atom  3       EATOM=-1390.9808
 kinetic energy error for atom=    0.0097 (will be added to EATOM!!)
  PAW_PBE Ag 02Apr2005                  :
 energy of atom  4       EATOM=-1037.2675
 kinetic energy error for atom=    0.0055 (will be added to EATOM!!)
  PAW_PBE Cu 22Jun2005                  :
 energy of atom  5       EATOM=-1390.9808
 kinetic energy error for atom=    0.0097 (will be added to EATOM!!)
  PAW_PBE Ag 02Apr2005                  :
 energy of atom  6       EATOM=-1037.2675
 kinetic energy error for atom=    0.0055 (will be added to EATOM!!)
  PAW_PBE Cu 22Jun2005                  :
 energy of atom  7       EATOM=-1390.9808
 kinetic energy error for atom=    0.0097 (will be added to EATOM!!)
  PAW_PBE Ag 02Apr2005                  :
 energy of atom  8       EATOM=-1037.2675
 kinetic energy error for atom=    0.0055 (will be added to EATOM!!)
 
 
 POSCAR: Cu Ag Cu Ag Cu Ag Cu Ag C  O
  positions in cartesian coordinates
  No initial velocities read in


 exchange-correlation table for RP
   RHO(1)=    0.500       N(1)  =     2000
   RHO(2)=  100.500       N(2)  =     4000
 


--------------------------------------------------------------------------------------------------------


 ion  position               nearest neighbor table
   1  0.000  0.000  0.389-   7 2.81   6 2.81   3 2.81   3 2.81   4 2.81   4 2.81   2 2.81   2 2.81

   2  0.500  0.000  0.389-   6 2.81   8 2.81   5 2.81   4 2.81   3 2.81   4 2.81   3 2.81   1 2.81
                             1 2.81
   3  0.000  0.500  0.389-   7 2.81   5 2.81   8 2.81   1 2.81   1 2.81   2 2.81   2 2.81   4 2.81
                             4 2.81
   4  0.500  0.500  0.389-   8 2.81   6 2.81   7 2.81   2 2.81   1 2.81   2 2.81   1 2.81   3 2.81
                             3 2.81
   5  0.167  0.167  0.463-   3 2.81   2 2.81   7 2.81   7 2.81   8 2.81   8 2.81   6 2.81   6 2.81
                            12 2.81  10 2.81
   6  0.667  0.167  0.463-   2 2.81   4 2.81   1 2.81   8 2.81   7 2.81   8 2.81   7 2.81   5 2.81
                             5 2.81  10 2.81  11 2.81   9 2.81
   7  0.167  0.667  0.463-   3 2.81   1 2.81   4 2.81   5 2.81   5 2.81   6 2.81   6 2.81   8 2.81
                             8 2.81  10 2.81  11 2.81  12 2.81
   8  0.667  0.667  0.463-   4 2.81   2 2.81   3 2.81   6 2.81   5 2.81   6 2.81   5 2.81   7 2.81
                             7 2.81   9 2.81  12 2.81  11 2.81
   9  0.833  0.333  0.537-  15 2.81  16 2.81  11 2.81  11 2.81  12 2.81  12 2.81  10 2.81  10 2.81
                             8 2.81   6 2.81
  10  0.333  0.333  0.537-  16 2.81  14 2.81  15 2.81  12 2.81  11 2.81  12 2.81  11 2.81   9 2.81
                             9 2.81   7 2.81   6 2.81   5 2.81
  11  0.833  0.833  0.537-  13 2.81  15 2.81  14 2.81   9 2.81   9 2.81  10 2.81  10 2.81  12 2.81
                            12 2.81   7 2.81   6 2.81   8 2.81
  12  0.333  0.833  0.537-  14 2.81  16 2.81  13 2.81  10 2.81   9 2.81  10 2.81   9 2.81  11 2.81
                            11 2.81   8 2.81   5 2.81   7 2.81
  13  0.000  0.000  0.611-  11 2.81  12 2.81  15 2.81  15 2.81  16 2.81  16 2.81  14 2.81  14 2.81

  14  0.500  0.000  0.611-  12 2.81  10 2.81  11 2.81  16 2.81  15 2.81  16 2.81  15 2.81  13 2.81
                            13 2.81
  15  0.000  0.500  0.611-   9 2.81  11 2.81  10 2.81  13 2.81  13 2.81  14 2.81  14 2.81  16 2.81
                            16 2.81
  16  0.500  0.500  0.611-  10 2.81  12 2.81   9 2.81  14 2.81  13 2.81  14 2.81  13 2.81  15 2.81
                            15 2.81
 
  LATTYP: Found a hexagonal cell.
 ALAT       =     5.6108923087
 C/A-ratio  =     5.5021393890
  
  Lattice vectors:
  
 A1 = (  -2.8054461544,  -4.8591752772,   0.0000000000)
 A2 = (   5.6108923087,   0.0000000000,   0.0000000000)
 A3 = (   0.0000000000,   0.0000000000,  30.8719115790)


Analysis of symmetry for initial positions (statically):
=====================================================================
 Subroutine PRICEL returns:
 Original cell was already a primitive cell.
 

 Routine SETGRP: Setting up the symmetry group for a 
 hexagonal supercell.


 Subroutine GETGRP returns: Found  1 space group operations
 (whereof  1 operations were pure point group operations)
 out of a pool of 24 trial point group operations.


The static configuration has the point symmetry C_1 .


Analysis of symmetry for dynamics (positions and initial velocities):
=====================================================================
 Subroutine PRICEL returns:
 Original cell was already a primitive cell.
 

 Routine SETGRP: Setting up the symmetry group for a 
 hexagonal supercell.


 Subroutine GETGRP returns: Found  1 space group operations
 (whereof  1 operations were pure point group operations)
 out of a pool of 24 trial point group operations.


The dynamic configuration has the point symmetry C_1 .


Analysis of constrained symmetry for selective dynamics:
=====================================================================
 Subroutine PRICEL returns:
 Original cell was already a primitive cell.
 

 Routine SETGRP: Setting up the symmetry group for a 
 hexagonal supercell.


 Subroutine GETGRP returns: Found  1 space group operations
 (whereof  1 operations were pure point group operations)
 out of a pool of 24 trial point group operations.


The constrained configuration has the point symmetry C_1 .


 Subroutine INISYM returns: Found  1 space group operations
 (whereof  1 operations are pure point group operations),
 and found     1 'primitive' translations


----------------------------------------------------------------------------------------

                                     Primitive cell                                     

  volume of cell :     841.7013

  direct lattice vectors                    reciprocal lattice vectors
     5.610892309  0.000000000  0.000000000     0.178224772 -0.102898120  0.000000000
     2.805446154  4.859175277  0.000000000     0.000000000  0.205796240  0.000000000
     0.000000000  0.000000000 30.871911579     0.000000000  0.000000000  0.032391904

  length of vectors
     5.610892309  5.610892309 30.871911579     0.205796240  0.205796240  0.032391904

  position of ions in fractional coordinates (direct lattice)
     0.000000000  0.000000000  0.388702849
     0.500000000  0.000000000  0.388702849
     0.000000000  0.500000000  0.388702849
     0.500000000  0.500000000  0.388702849
     0.166666667  0.166666667  0.462900950
     0.666666667  0.166666667  0.462900950
     0.166666667  0.666666667  0.462900950
     0.666666667  0.666666667  0.462900950
     0.833333333  0.333333333  0.537099050
     0.333333333  0.333333333  0.537099050
     0.833333333  0.833333333  0.537099050
     0.333333333  0.833333333  0.537099050
     0.000000000  0.000000000  0.611297151
     0.500000000  0.000000000  0.611297151
     0.000000000  0.500000000  0.611297151
     0.500000000  0.500000000  0.611297151

  ion indices of the primitive-cell ions
   primitive index   ion index
                 1           1
                 2           2
                 3           3
                 4           4
                 5           5
                 6           6
                 7           7
                 8           8
                 9           9
                10          10
                11          11
                12          12
                13          13
                14          14
                15          15
                16          16

----------------------------------------------------------------------------------------

 
 
 KPOINTS: Automatic mesh                          

Automatic generation of k-mesh.
 Grid dimensions read from file:
 generate k-points for:    4    4    1

 Generating k-lattice:

  Cartesian coordinates                     Fractional coordinates (reciprocal lattice)
     0.044556193 -0.025724530  0.000000000     0.250000000  0.000000000  0.000000000
     0.000000000  0.051449060  0.000000000     0.000000000  0.250000000  0.000000000
     0.000000000  0.000000000  0.032391904     0.000000000  0.000000000  1.000000000

  Length of vectors
     0.051449060  0.051449060  0.032391904

  Shift w.r.t. Gamma in fractional coordinates (k-lattice)
     0.000000000  0.000000000  0.000000000

 
 Subroutine IBZKPT returns following result:
 ===========================================
 
 Found     10 irreducible k-points:
 
 Following reciprocal coordinates:
            Coordinates               Weight
  0.000000  0.000000  0.000000      1.000000
  0.250000  0.000000  0.000000      2.000000
  0.250000  0.250000  0.000000      2.000000
  0.000000  0.250000  0.000000      2.000000
  0.500000  0.000000  0.000000      1.000000
  0.500000  0.500000  0.000000      1.000000
  0.000000  0.500000  0.000000      1.000000
  0.500000  0.250000  0.000000      2.000000
  0.250000  0.500000  0.000000      2.000000
 -0.250000  0.250000  0.000000      2.000000
 
 Following cartesian coordinates:
            Coordinates               Weight
  0.000000  0.000000  0.000000      1.000000
  0.044556 -0.025725  0.000000      2.000000
  0.044556  0.025725  0.000000      2.000000
  0.000000  0.051449  0.000000      2.000000
  0.089112 -0.051449  0.000000      1.000000
  0.089112  0.051449  0.000000      1.000000
  0.000000  0.102898  0.000000      1.000000
  0.089112  0.000000  0.000000      2.000000
  0.044556  0.077174  0.000000      2.000000
 -0.044556  0.077174  0.000000      2.000000
 


--------------------------------------------------------------------------------------------------------




 Dimension of arrays:
   k-points           NKPTS =     10   k-points in BZ     NKDIM =     10   number of bands    NBANDS=    105
   number of dos      NEDOS =    301   number of ions     NIONS =     16
   non local maximal  LDIM  =      6   non local SUM 2l+1 LMDIM =     18
   total plane-waves  NPLWV = 144000
   max r-space proj   IRMAX =   2111   max aug-charges    IRDMAX=   8610
   dimension x,y,z NGX =    30 NGY =   30 NGZ =  160
   dimension x,y,z NGXF=    60 NGYF=   60 NGZF=  320
   support grid    NGXF=    60 NGYF=   60 NGZF=  320
   ions per type =               1   3   1   3   1   3   1   3
   NGX,Y,Z   is equivalent  to a cutoff of   8.89,  8.89,  8.62 a.u.
   NGXF,Y,Z  is equivalent  to a cutoff of  17.78, 17.78, 17.23 a.u.

 SYSTEM =  Cu-Ag alloy CO adsorption (RPBE, matches
 POSCAR =  Cu Ag Cu Ag Cu Ag Cu Ag C  O            

 Startparameter for this run:
   NWRITE =      2    write-flag & timer
   PREC   = normal    normal or accurate (medium, high low for compatibility)
   ISTART =      0    job   : 0-new  1-cont  2-samecut
   ICHARG =      2    charge: 1-file 2-atom 10-const
   ISPIN  =      1    spin polarized calculation?
   LNONCOLLINEAR =      F non collinear calculations
   LSORBIT =      F    spin-orbit coupling
   INIWAV =      1    electr: 0-lowe 1-rand  2-diag
   LASPH  =      F    aspherical Exc in radial PAW
 Electronic Relaxation 1
   ENCUT  =  450.0 eV  33.07 Ry    5.75 a.u.   9.70  9.70 53.40*2*pi/ulx,y,z
   ENINI  =  450.0     initial cutoff
   ENAUG  =  587.0 eV  augmentation charge cutoff
   NELM   =    200;   NELMIN=  2; NELMDL= -5     # of ELM steps 
   EDIFF  = 0.1E-05   stopping-criterion for ELM
   LREAL  =      T    real-space projection
   NLSPLINE    = F    spline interpolate recip. space projectors
   LCOMPAT=      F    compatible to vasp.4.4
   GGA_COMPAT  = T    GGA compatible to vasp.4.4-vasp.4.6
   LMAXPAW     = -100 max onsite density
   LMAXMIX     =    2 max onsite mixed and CHGCAR
   VOSKOWN=      0    Vosko Wilk Nusair interpolation
   ROPT   =   -0.00050  -0.00050  -0.00050  -0.00050
   ROPT   =   -0.00050  -0.00050  -0.00050  -0.00050
 Ionic relaxation
   EDIFFG = -.3E-01   stopping-criterion for IOM
   NSW    =    200    number of steps for IOM
   NBLOCK =      1;   KBLOCK =    200    inner block; outer block 
   IBRION =      2    ionic relax: 0-MD 1-quasi-New 2-CG
   NFREE  =      1    steps in history (QN), initial steepest desc. (CG)
   ISIF   =      2    stress and relaxation
   IWAVPR =     11    prediction:  0-non 1-charg 2-wave 3-comb
   ISYM   =      2    0-nonsym 1-usesym 2-fastsym
   LCORR  =      T    Harris-Foulkes like correction to forces

   POTIM  = 0.5000    time-step for ionic-motion
   TEIN   =    0.0    initial temperature
   TEBEG  =    0.0;   TEEND  =   0.0 temperature during run
   SMASS  =  -3.00    Nose mass-parameter (am)
   estimated Nose-frequenzy (Omega)   =  0.10E-29 period in steps = 0.13E+47 mass=  -0.719E-27a.u.
   SCALEE = 1.0000    scale energy and forces
   NPACO  =    256;   APACO  = 10.0  distance and # of slots for P.C.
   PSTRESS=    0.0 pullay stress

  Mass of Ions in am
   POMASS =  63.55107.87 63.55107.87 63.55107.87 63.55107.87
  Ionic Valenz
   ZVAL   =  11.00 11.00 11.00 11.00 11.00 11.00 11.00 11.00
  Atomic Wigner-Seitz radii
   RWIGS  =  -1.00 -1.00 -1.00 -1.00 -1.00 -1.00 -1.00 -1.00
  virtual crystal weights 
   VCA    =   1.00  1.00  1.00  1.00  1.00  1.00  1.00  1.00
   NELECT =     176.0000    total number of electrons
   NUPDOWN=      -1.0000    fix difference up-down

 DOS related values:
   EMIN   =  10.00;   EMAX   =-10.00  energy-range for DOS
   EFERMI =   0.00;   METHOD = LEGACY      
   ISMEAR =     0;   SIGMA  =   0.10  broadening in eV -4-tet -1-fermi 0-gaus
   EFERMI_NEDOS =   21; number of points for ismear=-14 and -15

 Electronic relaxation 2 (details)
   IALGO  =     38    algorithm
   LDIAG  =      T    sub-space diagonalisation (order eigenvalues)
   LSUBROT=      F    optimize rotation matrix (better conditioning)
   LROBUST=      F    robust break criterion during scf (extrapolated energy error)
   ISEARCH=      0    line search for conjugate gradient (0, 1=use gradient)
   TURBO    =      0    0=normal 1=particle mesh
   IRESTART =      0    0=no restart 2=restart with 2 vectors
   NREBOOT  =      0    no. of reboots
   NMIN     =      0    reboot dimension
   EREF     =   0.00    reference energy to select bands
   IMIX   =      4    mixing-type and parameters
     AMIX     =   0.40;   BMIX     =  1.00
     AMIX_MAG =   1.60;   BMIX_MAG =  1.00
     AMIN     =   0.10
     WC   =   100.;   INIMIX=   1;  MIXPRE=   1;  MAXMIX= -45

 Intra band minimization:
   WEIMIN = 0.0010     energy-eigenvalue tresh-hold
   EBREAK =  0.24E-08  absolut break condition
   DEPER  =   0.30     relativ break condition  

   TIME   =   0.40     timestep for ELM

  volume/ion in A,a.u.               =      52.61       355.01
  Fermi-wavevector in a.u.,A,eV,Ry     =   0.971687  1.836222 12.846289  0.944176
  Thomas-Fermi vector in A             =   2.101924
 
 Write flags
   LWAVE        =      F    write WAVECAR
   LDOWNSAMPLE  =      F    k-point downsampling of WAVECAR
   LCHARG       =      F    write CHGCAR
   LVTOT        =      F    write LOCPOT, total local potential
   LVHAR        =      F    write LOCPOT, Hartree potential only
   WRT_POTENTIAL= false  ! write potential to hdf5 file
   LELF         =      F    write electronic localiz. function (ELF)
   LORBIT       =     11    0 simple, 1 ext, 2 COOP (PROOUT), +10 PAW based schemes


 Python interface
   PLUGINS active      =      F    recompile with -DPLUGINS to activate
 
 Dipole corrections
   LMONO      =      F    monopole corrections only (constant potential shift)
   LDIPOL     =      F    correct potential (dipole corrections)
   IDIPOL     =      0    1-x, 2-y, 3-z, 4-all directions 
   EPSILON    =  1.0000000 bulk dielectric constant
   LVACPOTAV  =      F  vacuum potentials using an averaging scheme for the charge density
   VACPOTFLAT =  0.1000000 required flatness to determine vacuum potential
 
Coulomb truncation method
  LTRUNCATE          =      F  Coulomb kernel truncation to be used

 
 Exchange correlation treatment:
   GGA     = RP    functional components
   XC_C    = 1    coefficients multiplying the functional components
   LIBXC   =     F    Libxc                    
   VOSKOWN =     0    Vosko Wilk Nusair interpolation
   LHFCALC =     F    Hartree Fock is set to
   LHFONE  =     F    Hartree Fock one center treatment
   AEXX    =    0.0000 exact exchange contribution

 Parameters of functionals:
   RP:
     No parameter
 
 Van der Waals corrections
   IVDW    =     0    specifies the selected vdW correction

 Linear response parameters
   LEPSILON=     F    determine dielectric tensor
   LRPA    =     F    only Hartree local field effects (RPA)
   LNABLA  =     F    use nabla operator in PAW spheres
   LVEL    =     F    velocity operator in full k-point grid
   CSHIFT  =0.1000    complex shift for real part using Kramers Kronig
   OMEGAMAX=  -1.0    maximum frequency
   DEG_THRESHOLD= 0.2000000E-02 threshold for treating states as degnerate
   RTIME   =   -0.100 relaxation time in fs
  (WPLASMAI=    0.000 imaginary part of plasma frequency in eV, 0.658/RTIME)
   DFIELD  = 0.0000000 0.0000000 0.0000000 field for delta impulse in time
 
  Optional k-point grid parameters
   LKPOINTS_OPT  =     F    use optional k-point grid
   KPOINTS_OPT_MODE=     1    mode for optional k-point grid
 
 Orbital magnetization related:
   ORBITALMAG=     F  switch on orbital magnetization
   LCHIMAG   =     F  perturbation theory with respect to B field
   DQ        =  0.001000  dq finite difference perturbation B field
   LLRAUG    =     F  two centre corrections for induced B field
   LBONE     =     F  B-component reconstruction in AE one-centre
   LVGVCALC  =     T  calculate vGv susceptibility
   LVGVAPPL  =     F  apply vGv susceptibility instead of pGv for G=0

 Random number generation:
   RANDOM_GENERATOR = DEFAULT
   PCG_SEED         = not used


--------------------------------------------------------------------------------------------------------


 conjugate gradient relaxation of ions
   using selective dynamics as specified on POSCAR
   WARNING: If single coordinates had been selected the selection of coordinates
            is made according to the corresponding   d i r e c t   coordinates!
            Don't support selection of single cartesian coordinates -- sorry ... !
 charge density and potential will be updated during run
 non-spin polarized calculation
 Variant of blocked Davidson
 Davidson routine will perform the subspace rotation
 perform sub-space diagonalisation
    after iterative eigenvector-optimisation
 modified Broyden-mixing scheme, WC =      100.0
 initial mixing is a Kerker type mixing with AMIX =  0.4000 and BMIX =      1.0000
 Hartree-type preconditioning will be used
 using additional bands            17
 real space projection scheme for non local part
 use partial core corrections
 calculate Harris-corrections to forces 
   (improved forces if not selfconsistent)
 use gradient corrections 
 use of overlap-Matrix (Vanderbilt PP)
 Gauss-broadening in eV      SIGMA  =   0.10


--------------------------------------------------------------------------------------------------------


  energy-cutoff  :      450.00
  volume of cell :      841.70
      direct lattice vectors                 reciprocal lattice vectors
     5.610892309  0.000000000  0.000000000     0.178224772 -0.102898120  0.000000000
     2.805446154  4.859175277  0.000000000     0.000000000  0.205796240  0.000000000
     0.000000000  0.000000000 30.871911579     0.000000000  0.000000000  0.032391904

  length of vectors
     5.610892309  5.610892309 30.871911579     0.205796240  0.205796240  0.032391904


 
 k-points in units of 2pi/SCALE and weight: Automatic mesh                          
   0.00000000  0.00000000  0.00000000       0.063
   0.04455619 -0.02572453  0.00000000       0.125
   0.04455619  0.02572453  0.00000000       0.125
   0.00000000  0.05144906  0.00000000       0.125
   0.08911239 -0.05144906  0.00000000       0.063
   0.08911239  0.05144906  0.00000000       0.063
   0.00000000  0.10289812  0.00000000       0.063
   0.08911239  0.00000000  0.00000000       0.125
   0.04455619  0.07717359  0.00000000       0.125
  -0.04455619  0.07717359  0.00000000       0.125
 
 k-points in reciprocal lattice and weights: Automatic mesh                          
   0.00000000  0.00000000  0.00000000       0.063
   0.25000000  0.00000000  0.00000000       0.125
   0.25000000  0.25000000  0.00000000       0.125
   0.00000000  0.25000000  0.00000000       0.125
   0.50000000  0.00000000  0.00000000       0.063
   0.50000000  0.50000000  0.00000000       0.063
   0.00000000  0.50000000  0.00000000       0.063
   0.50000000  0.25000000  0.00000000       0.125
   0.25000000  0.50000000  0.00000000       0.125
  -0.25000000  0.25000000  0.00000000       0.125
 
 position of ions in fractional coordinates (direct lattice) 
   0.00000000  0.00000000  0.38870285
   0.50000000  0.00000000  0.38870285
   0.00000000  0.50000000  0.38870285
   0.50000000  0.50000000  0.38870285
   0.16666667  0.16666667  0.46290095
   0.66666667  0.16666667  0.46290095
   0.16666667  0.66666667  0.46290095
   0.66666667  0.66666667  0.46290095
   0.83333333  0.33333333  0.53709905
   0.33333333  0.33333333  0.53709905
   0.83333333  0.83333333  0.53709905
   0.33333333  0.83333333  0.53709905
   0.00000000  0.00000000  0.61129715
   0.50000000  0.00000000  0.61129715
   0.00000000  0.50000000  0.61129715
   0.50000000  0.50000000  0.61129715
 
 position of ions in cartesian coordinates  (Angst):
   0.00000000  0.00000000 12.00000000
   2.80544615  0.00000000 12.00000000
   1.40272308  2.42958764 12.00000000
   4.20816923  2.42958764 12.00000000
   1.40272308  0.80986255 14.29063719
   4.20816923  0.80986255 14.29063719
   2.80544615  3.23945018 14.29063719
   5.61089231  3.23945018 14.29063719
   5.61089231  1.61972509 16.58127439
   2.80544615  1.61972509 16.58127439
   7.01361539  4.04931273 16.58127439
   4.20816923  4.04931273 16.58127439
   0.00000000  0.00000000 18.87191158
   2.80544615  0.00000000 18.87191158
   1.40272308  2.42958764 18.87191158
   4.20816923  2.42958764 18.87191158
 


--------------------------------------------------------------------------------------------------------


 k-point     1 :   0.0000 0.0000 0.0000  plane waves:   18263
 k-point     2 :   0.2500 0.0000 0.0000  plane waves:   18237
 k-point     3 :   0.2500 0.2500 0.0000  plane waves:   18237
 k-point     4 :   0.0000 0.2500 0.0000  plane waves:   18237
 k-point     5 :   0.5000 0.0000 0.0000  plane waves:   18210
 k-point     6 :   0.5000 0.5000 0.0000  plane waves:   18210
 k-point     7 :   0.0000 0.5000 0.0000  plane waves:   18210
 k-point     8 :   0.5000 0.2500 0.0000  plane waves:   18220
 k-point     9 :   0.2500 0.5000 0.0000  plane waves:   18220
 k-point    10 :  -0.2500 0.2500 0.0000  plane waves:   18220

 maximum and minimum number of plane-waves per node :     18263    18210

 maximum number of plane-waves:     18263
 maximum index in each direction: 
   IXMAX=    9   IYMAX=    9   IZMAX=   53
   IXMIN=  -10   IYMIN=  -10   IZMIN=  -53


 serial   3D FFT for wavefunctions
 parallel 3D FFT for charge:
    minimum data exchange during FFTs selected (reduces bandwidth)


 total amount of memory used by VASP MPI-rank0   513167. kBytes
=======================================================================

   base                                    :      30000. kBytes
   nonlr-proj                              :       5627. kBytes
   fftplans                                :      39420. kBytes
   grid                                    :     126216. kBytes
   one-center                              :        248. kBytes
   wavefun                                 :     311656. kBytes
 
     INWAV:  cpu time      0.0000: real time      0.0001
 Broyden mixing: mesh for mixing (old mesh)
   NGX = 19   NGY = 19   NGZ =107
  (NGX  = 60   NGY  = 60   NGZ  =320)
  gives a total of  38627 points

 initial charge density was supplied:
 charge density of overlapping atoms calculated
 number of electron     176.0000000 magnetization 
 keeping initial charge density in first step


--------------------------------------------------------------------------------------------------------


 Maximum index for non-local projection operator          2007
 Maximum index for augmentation-charges          8130 (set IRDMAX)


--------------------------------------------------------------------------------------------------------


 First call to EWALD:  gamma=   0.188
 Maximum number of real-space cells   5x   5x   1
 Maximum number of reciprocal cells   2x   2x   8

    FEWALD:  cpu time      0.0107: real time      0.0107


--------------------------------------- Ionic step        1  -------------------------------------------




--------------------------------------- Iteration      1(   1)  ---------------------------------------


    POTLOK:  cpu time      0.0231: real time      0.0232
    SETDIJ:  cpu time      0.0157: real time      0.0157
     EDDAV:  cpu time      1.4838: real time      1.4871
       DOS:  cpu time      0.0007: real time      0.0007
    --------------------------------------------
      LOOP:  cpu time      1.5234: real time      1.5267

 eigenvalue-minimisations  :  2100
 total energy-change (2. order) : 0.1291197E+04  (-0.6953039E+04)
 number of electron     176.0000000 magnetization 
 augmentation part      176.0000000 magnetization 

 Free energy of the ion-electron system (eV)
[...]
     68      -2.8732      2.00000
     69      -2.8617      2.00000
     70      -2.7803      2.00000
     71      -2.7421      2.00000
     72      -2.6899      2.00000
     73      -2.6633      2.00000
     74      -2.6143      2.00000
     75      -2.5766      2.00000
     76      -2.5266      2.00000
     77      -2.5105      2.00000
     78      -2.4793      2.00000
     79      -2.4616      2.00000
     80      -2.4090      2.00000
     81      -2.3768      2.00000
     82      -2.3074      2.00000
     83      -2.2776      2.00000
     84      -2.2121      2.00000
     85      -2.1166      2.00000
     86      -1.9989      2.00000
     87      -1.9617      2.00000
     88      -0.8131      1.99998
     89      -0.7563      1.99947
     90      -0.1668      0.00000
     91       1.2619      0.00000
     92       1.4057      0.00000
     93       1.7138      0.00000
     94       1.9894      0.00000
     95       2.2646      0.00000
     96       2.8071      0.00000
     97       3.2514      0.00000
     98       3.6857      0.00000
     99       3.7525      0.00000
    100       4.2811      0.00000
    101       4.4349      0.00000
    102       4.7467      0.00000
    103       5.0594      0.00000
    104       5.2166      0.00000
    105       5.3767      0.00000

 k-point    10 :      -0.2500    0.2500    0.0000
  band No.  band energies     occupation 
      1      -6.8796      2.00000
      2      -6.3927      2.00000
      3      -6.3436      2.00000
      4      -6.3299      2.00000
      5      -6.2889      2.00000
      6      -6.2737      2.00000
      7      -6.1895      2.00000
      8      -6.1227      2.00000
      9      -6.0871      2.00000
     10      -6.0351      2.00000
     11      -6.0030      2.00000
     12      -5.9593      2.00000
     13      -5.9024      2.00000
     14      -5.8327      2.00000
     15      -5.8191      2.00000
     16      -5.7754      2.00000
     17      -5.6855      2.00000
     18      -5.6406      2.00000
     19      -5.5982      2.00000
     20      -5.5489      2.00000
     21      -5.5085      2.00000
     22      -5.4687      2.00000
     23      -5.4014      2.00000
     24      -5.3633      2.00000
     25      -5.3321      2.00000
     26      -5.2757      2.00000
     27      -5.2379      2.00000
     28      -5.1596      2.00000
     29      -5.1483      2.00000
     30      -5.1039      2.00000
     31      -5.0588      2.00000
     32      -4.9986      2.00000
     33      -4.9733      2.00000
     34      -4.9209      2.00000
     35      -4.8849      2.00000
     36      -4.8743      2.00000
     37      -4.8255      2.00000
     38      -4.8007      2.00000
     39      -4.7398      2.00000
     40      -4.7028      2.00000
     41      -4.6704      2.00000
     42      -4.6159      2.00000
     43      -4.6019      2.00000
     44      -4.5407      2.00000
     45      -4.5036      2.00000
     46      -4.4519      2.00000
     47      -4.4317      2.00000
     48      -4.3742      2.00000
     49      -4.3315      2.00000
     50      -4.2968      2.00000
     51      -4.2732      2.00000
     52      -4.2160      2.00000
     53      -4.1697      2.00000
     54      -4.1137      2.00000
     55      -4.0839      2.00000
     56      -4.0283      2.00000
     57      -3.9801      2.00000
     58      -3.9107      2.00000
     59      -3.8327      2.00000
     60      -3.7643      2.00000
     61      -3.7196      2.00000
     62      -3.6872      2.00000
     63      -3.4857      2.00000
     64      -3.3550      2.00000
     65      -3.2029      2.00000
     66      -3.0352      2.00000
     67      -2.9566      2.00000
     68      -2.8670      2.00000
     69      -2.8450      2.00000
     70      -2.8086      2.00000
     71      -2.7330      2.00000
     72      -2.7035      2.00000
     73      -2.6608      2.00000
     74      -2.6277      2.00000
     75      -2.5902      2.00000
     76      -2.5681      2.00000
     77      -2.5062      2.00000
     78      -2.4959      2.00000
     79      -2.4411      2.00000
     80      -2.4032      2.00000
     81      -2.3568      2.00000
     82      -2.3215      2.00000
     83      -2.2742      2.00000
     84      -2.2295      2.00000
     85      -2.1178      2.00000
     86      -1.9986      2.00000
     87      -1.9614      2.00000
     88      -0.8163      1.99998
     89      -0.7492      1.99923
     90      -0.1620      0.00000
     91       1.2549      0.00000
     92       1.4193      0.00000
     93       1.7027      0.00000
     94       1.9948      0.00000
     95       2.2639      0.00000
     96       2.8082      0.00000
     97       3.2494      0.00000
     98       3.6783      0.00000
     99       3.7741      0.00000
    100       4.2626      0.00000
    101       4.4494      0.00000
    102       4.7453      0.00000
    103       5.0587      0.00000
    104       5.2189      0.00000
    105       5.3842      0.00000


--------------------------------------------------------------------------------------------------------


 soft charge-density along one line, spin component            1
         0         1         2         3         4         5         6         7         8         9
 total charge-density along one line
 
 pseudopotential strength for first ion, spin component:            1
 -8.360  -0.001   0.001  -0.003   0.000  -0.608   0.001  -0.001
 -0.001  -8.332  -0.000  -0.000  -0.003   0.001  -0.631   0.000
  0.001  -0.000  -8.328  -0.000  -0.000  -0.001   0.000  -0.635
 -0.003  -0.000  -0.000  -8.331  -0.001   0.002   0.000   0.000
  0.000  -0.003  -0.000  -0.001  -8.360  -0.000   0.002   0.000
 -0.608   0.001  -0.001   0.002  -0.000   7.444  -0.001   0.001
  0.001  -0.631   0.000   0.000   0.002  -0.001   7.461  -0.000
 -0.001   0.000  -0.635   0.000   0.000   0.001  -0.000   7.463
  0.002   0.000   0.000  -0.632   0.000  -0.002  -0.000  -0.000
 -0.000   0.002   0.000   0.000  -0.608   0.000  -0.001  -0.000
  0.000   0.000  -0.006   0.000   0.000  -0.000  -0.000   0.002
  0.001   0.000  -0.011   0.000   0.000  -0.000  -0.000   0.003
 -0.001  -0.009  -0.000  -0.000  -0.000   0.000   0.007   0.000
 -0.000   0.000  -0.009  -0.001  -0.000  -0.000  -0.000   0.006
  0.000  -0.000   0.000  -0.009  -0.001  -0.000  -0.000  -0.000
 -0.001  -0.010  -0.000  -0.000  -0.000   0.000   0.008   0.000
 -0.000   0.000  -0.010  -0.001   0.000  -0.000  -0.001   0.006
  0.001  -0.000   0.000  -0.010  -0.001  -0.000  -0.000  -0.000
 total augmentation occupancy for first ion, spin component:            1
  1.920  -0.001   0.001  -0.005   0.001  -0.022  -0.000  -0.000   0.003  -0.000  -0.004   0.000   0.000  -0.000   0.004  -0.001
 -0.001   1.937  -0.001  -0.000  -0.004  -0.000  -0.033  -0.000  -0.000   0.003  -0.002   0.000   0.010  -0.000  -0.000  -0.010
  0.001  -0.001   1.933  -0.000   0.000  -0.000  -0.000  -0.030  -0.000  -0.000   0.011   0.010   0.000   0.039   0.001  -0.000
 -0.005  -0.000  -0.000   1.937  -0.001   0.003  -0.000  -0.000  -0.033  -0.000  -0.001   0.000   0.000  -0.000   0.010  -0.000
  0.001  -0.004   0.000  -0.001   1.919  -0.000   0.003  -0.000  -0.000  -0.022  -0.003  -0.000   0.004   0.000   0.000  -0.001
 -0.022  -0.000  -0.000   0.003  -0.000   0.009  -0.000  -0.000   0.000   0.000  -0.000   0.000  -0.000  -0.000   0.001   0.000
 -0.000  -0.033  -0.000  -0.000   0.003  -0.000   0.006  -0.000  -0.000   0.000  -0.001   0.000   0.009  -0.001  -0.000  -0.001
 -0.000  -0.000  -0.030  -0.000  -0.000  -0.000  -0.000   0.008  -0.000  -0.000  -0.033   0.002  -0.000   0.014  -0.001   0.000
  0.003  -0.000  -0.000  -0.033  -0.000   0.000  -0.000  -0.000   0.006  -0.000  -0.002   0.000  -0.000  -0.001   0.009   0.000
 -0.000   0.003  -0.000  -0.000  -0.022   0.000   0.000  -0.000  -0.000   0.009   0.000   0.000   0.002  -0.000  -0.000  -0.000
 -0.004  -0.002   0.011  -0.001  -0.003  -0.000  -0.001  -0.033  -0.002   0.000   1.443  -0.100  -0.004   0.089  -0.004   0.000
  0.000   0.000   0.010   0.000  -0.000   0.000   0.000   0.002   0.000   0.000  -0.100   0.012   0.000  -0.015   0.001  -0.000
  0.000   0.010   0.000   0.000   0.004  -0.000   0.009  -0.000  -0.000   0.002  -0.004   0.000   0.137  -0.001  -0.000  -0.009
 -0.000  -0.000   0.039  -0.000   0.000  -0.000  -0.001   0.014  -0.001  -0.000   0.089  -0.015  -0.001   0.079  -0.003   0.000
  0.004  -0.000   0.001   0.010   0.000   0.001  -0.000  -0.001   0.009  -0.000  -0.004   0.001  -0.000  -0.003   0.138   0.000
 -0.001  -0.010  -0.000  -0.000  -0.001   0.000  -0.001   0.000   0.000  -0.000   0.000  -0.000  -0.009   0.000   0.000   0.001
 -0.000   0.000  -0.014  -0.001  -0.000   0.000   0.000  -0.000   0.000   0.000  -0.013   0.001   0.000  -0.005   0.000  -0.000
 -0.000  -0.000   0.000  -0.010  -0.001  -0.000   0.000   0.000  -0.001   0.000   0.000  -0.000   0.000   0.000  -0.009  -0.000


------------------------ aborting loop because EDIFF is reached ----------------------------------------





 total charge

# of ion       s       p       d       tot
------------------------------------------
    1        0.398   0.190   9.231   9.819
    2        0.452   0.253   9.167   9.871
    3        0.450   0.252   9.169   9.871
    4        0.451   0.253   9.177   9.882
    5        0.381   0.243   9.223   9.847
    6        0.434   0.324   9.160   9.919
    7        0.434   0.321   9.169   9.924
    8        0.439   0.326   9.165   9.931
    9        0.384   0.232   9.221   9.837
   10        0.426   0.297   9.166   9.888
   11        0.429   0.303   9.163   9.895
   12        0.432   0.307   9.156   9.895
   13        0.400   0.197   9.225   9.822
   14        0.434   0.210   9.182   9.826
   15        0.440   0.223   9.172   9.835
   16        0.441   0.227   9.168   9.835
--------------------------------------------------
tot          6.826   4.159 146.912 157.897
 
    CHARGE:  cpu time      0.1437: real time      0.1440
    FORLOC:  cpu time      0.0144: real time      0.0144
    FORNL :  cpu time      0.4670: real time      0.4680
    STRESS:  cpu time      1.3356: real time      1.3384
    FORCOR:  cpu time      0.0242: real time      0.0243
    FORHAR:  cpu time      0.0153: real time      0.0153
    MIXING:  cpu time      0.0153: real time      0.0153
    OFIELD:  cpu time      0.0000: real time      0.0000

  FORCE on cell =-STRESS in cart. coord.  units (eV):
  Direction    XX          YY          ZZ          XY          YZ          ZX
  --------------------------------------------------------------------------------------
  Alpha Z   249.63247   249.63247   249.63247
  Ewald  125408.33247125417.10446************    -1.32596     5.40569     3.34561
  Hartree129912.37392129918.38963************    -1.00233     2.09500     0.46921
  E(xc)    -955.17196  -955.15003  -959.56009    -0.00540     0.01200     0.01052
  Local  ************************260815.74078     2.36783    -7.26998    -3.59306
  n-local  -184.25975  -184.30444  -191.41788    -0.01253     0.14492     0.13849
  augment  1476.15896  1476.08781  1483.39481    -0.00088    -0.07361    -0.07440
  Kinetic  1989.97809  1989.82041  2004.82373     0.00487    -0.07349    -0.06069
  Fock        0.00000     0.00000     0.00000     0.00000     0.00000     0.00000
  -------------------------------------------------------------------------------------
  Total       9.29059     9.16163     3.66335     0.02559     0.24054     0.23568
  in kB      17.68463    17.43914     6.97318     0.04872     0.45786     0.44861
  external pressure =       14.03 kB  Pullay stress =        0.00 kB


 VOLUME and BASIS-vectors are now :
 -----------------------------------------------------------------------------
  energy-cutoff  :      450.00
  volume of cell :      841.70
      direct lattice vectors                 reciprocal lattice vectors
     5.610892309  0.000000000  0.000000000     0.178224772 -0.102898120  0.000000000
     2.805446154  4.859175277  0.000000000     0.000000000  0.205796240  0.000000000
     0.000000000  0.000000000 30.871911579     0.000000000  0.000000000  0.032391904

  length of vectors
     5.610892309  5.610892309 30.871911579     0.205796240  0.205796240  0.032391904


 FORCES acting on ions
    electron-ion (+dipol)            ewald-force                    non-local-force                 convergence-correction
 -----------------------------------------------------------------------------------------------
   0.603E+00 0.663E+00 0.335E+04   -.416E+00 -.678E+00 -.335E+04   -.806E-01 0.588E-01 -.222E+01   -.155E-03 -.103E-03 0.896E-02
   -.587E+00 0.376E+00 0.335E+04   0.414E+00 -.254E+00 -.334E+04   -.606E-02 -.140E-01 -.177E+01   0.178E-03 -.245E-03 0.877E-02
   -.267E+00 -.879E+00 0.335E+04   0.362E+00 0.707E+00 -.335E+04   -.771E-01 -.273E-01 -.179E+01   -.131E-03 0.337E-03 0.870E-02
   0.270E+00 -.194E+00 0.335E+04   -.362E+00 0.224E+00 -.335E+04   0.742E-01 -.247E-01 -.186E+01   0.143E-03 0.451E-04 0.866E-02
   -.875E+01 0.395E+01 0.111E+04   0.839E+01 -.393E+01 -.111E+04   0.180E+00 -.305E-01 -.123E+01   0.253E-03 -.472E-03 0.294E-01
   0.907E+01 0.826E+01 0.110E+04   -.874E+01 -.821E+01 -.110E+04   -.661E-01 -.139E+00 -.441E+00   -.607E-04 -.980E-03 0.287E-01
   0.453E+01 -.134E+01 0.109E+04   -.449E+01 0.151E+01 -.109E+04   -.928E-01 0.491E-01 -.390E+00   0.111E-03 0.834E-03 0.289E-01
   -.399E+01 -.107E+02 0.110E+04   0.394E+01 0.105E+02 -.110E+04   0.834E-01 0.125E+00 -.550E+00   -.451E-04 0.533E-03 0.290E-01
   0.156E+02 -.327E+02 -.106E+04   -.154E+02 0.323E+02 0.106E+04   -.275E+00 0.430E+00 0.186E+01   0.482E-02 -.921E-03 0.175E-01
   -.161E+02 -.195E+01 -.115E+04   0.159E+02 0.185E+01 0.114E+04   0.239E+00 0.771E-01 0.149E+01   0.220E-02 0.323E-02 0.350E-01
   0.256E+02 0.106E+02 -.119E+04   -.252E+02 -.104E+02 0.119E+04   -.346E+00 -.151E+00 0.691E+00   0.488E-02 0.983E-02 0.896E-02
   -.250E+02 0.262E+02 -.113E+04   0.247E+02 -.258E+02 0.113E+04   0.302E+00 -.372E+00 0.979E+00   -.527E-02 0.110E-02 0.187E-01
   -.210E+01 0.139E+02 -.318E+04   0.199E+01 -.135E+02 0.318E+04   0.113E+00 -.355E+00 0.150E+01   0.258E-02 0.683E-02 -.725E-02
   0.132E+01 0.551E+00 -.343E+04   -.127E+01 -.549E+00 0.343E+04   -.530E-01 0.226E-01 0.154E+01   -.367E-03 0.167E-02 0.491E-02
   -.822E+01 -.723E+01 -.335E+04   0.800E+01 0.711E+01 0.335E+04   0.211E+00 0.130E+00 0.114E+01   0.157E-02 -.138E-01 0.213E-02
   0.805E+01 -.950E+01 -.330E+04   -.783E+01 0.929E+01 0.330E+04   -.196E+00 0.227E+00 0.855E+00   -.974E-02 -.105E-01 0.121E-02
 -----------------------------------------------------------------------------------------------
   -.235E-01 -.600E-03 -.127E+00   -.107E-13 -.711E-13 0.909E-12   0.977E-02 0.693E-02 -.210E+00   0.971E-03 -.256E-02 0.232E+00
 
 
 POSITION                                       TOTAL-FORCE (eV/Angst)
 -----------------------------------------------------------------------------------
      0.00000      0.00000     12.00000         0.106931      0.043425      0.274774
      2.80545      0.00000     12.00000        -0.177545      0.107384     -0.552783
      1.40272      2.42959     12.00000         0.018157     -0.199228     -0.549817
      4.20817      2.42959     12.00000        -0.017017      0.004750     -0.855342
      1.40272      0.80986     14.29064        -0.181200     -0.014695      0.230506
      4.20817      0.80986     14.29064         0.262438     -0.092431      0.437064
      2.80545      3.23945     14.29064        -0.059774      0.226044      0.223853
      5.61089      3.23945     14.29064         0.042657     -0.095360      0.764634
      5.61793      1.59739     16.56119        -0.016817     -0.009277      0.016359
      2.76541      1.61613     16.65052         0.014748     -0.015026     -0.020699
      6.98732      4.05514     16.73845         0.007222      0.011355      0.017442
      4.19259      4.06509     16.65212        -0.015534      0.001492      0.007453
      5.61975      0.04919     18.87562         0.003434      0.001166      0.014082
      5.61000      4.84960     19.26988        -0.003883      0.025349     -0.008779
      1.40027      2.42117     19.15078        -0.003565     -0.004758     -0.001413
      4.21503      2.41672     19.08744         0.019748      0.009811      0.002665
 -----------------------------------------------------------------------------------
    total drift:                               -0.012741      0.003768     -0.104811


--------------------------------------------------------------------------------------------------------



  FREE ENERGIE OF THE ION-ELECTRON SYSTEM (eV)
  ---------------------------------------------------
  free  energy   TOTEN  =       -35.46817853 eV

  energy  without entropy=      -35.43331242  energy(sigma->0) =      -35.45074547
 d Force = 0.1145813E-02[ 0.434E-03, 0.186E-02]  d Energy = 0.9877559E-03 0.158E-03
 d Force = 0.5810847E+02[ 0.581E+02, 0.581E+02]  d Ewald  = 0.5810849E+02-0.215E-04
 


--------------------------------------------------------------------------------------------------------


    POTLOK:  cpu time      0.0300: real time      0.0300


--------------------------------------------------------------------------------------------------------


 Conjugate gradient step on ions:
 trial-energy change:   -0.000988  1 .order   -0.001146   -0.001858   -0.000434
  (g-gl).g = 0.563E-03      g.g   = 0.705E-03  gl.gl    = 0.190E-02
 g(Force)  = 0.705E-03   g(Stress)= 0.000E+00 ortho     = 0.509E-04
 gamma     =   0.29707
 trial     =   2.57893
 opt step  =   3.36532  (harmonic =   3.36532) maximal distance =0.01067672
 next E    =   -35.468403   (d E  =  -0.00121)


--------------------------------------------------------------------------------------------------------


  
 reached required accuracy - stopping structural energy minimisation
     LOOP+:  cpu time     17.1521: real time     17.1978
    4ORBIT:  cpu time      0.0000: real time      0.0000



 total charge

# of ion       s       p       d       tot
------------------------------------------
    1        0.398   0.190   9.231   9.819
    2        0.452   0.253   9.167   9.871
    3        0.450   0.252   9.169   9.871
    4        0.451   0.253   9.177   9.882
    5        0.381   0.243   9.223   9.847
    6        0.434   0.324   9.160   9.919
    7        0.434   0.321   9.169   9.924
    8        0.439   0.326   9.165   9.931
    9        0.384   0.232   9.221   9.837
   10        0.426   0.297   9.166   9.888
   11        0.429   0.303   9.163   9.895
   12        0.432   0.307   9.156   9.895
   13        0.400   0.197   9.225   9.822
   14        0.434   0.210   9.182   9.826
   15        0.440   0.223   9.172   9.835
   16        0.441   0.227   9.168   9.835
--------------------------------------------------
tot          6.826   4.159 146.912 157.897
 

 total amount of memory used by VASP MPI-rank0   513167. kBytes
=======================================================================

   base                                    :      30000. kBytes
   nonlr-proj                              :       5627. kBytes
   fftplans                                :      39420. kBytes
   grid                                    :     126216. kBytes
   one-center                              :        248. kBytes
   wavefun                                 :     311656. kBytes
 
  
  
 General timing and accounting informations for this job:
 ========================================================
  
                  Total CPU time used (sec):      318.495
                            User time (sec):      317.311
                          System time (sec):        1.184
                         Elapsed time (sec):      319.573
  
                   Maximum memory used (kb):     2131540.
                   Average memory used (kb):          N/A
  
                          Minor page faults:       469217
                          Major page faults:            7
                 Voluntary context switches:        10152
