PROCAR lm decomposed
# of k-points:   10         # of bands:  105         # of ions:   16

 k-point     1 :    0.00000000 0.00000000 0.00000000     weight = 0.06250000

band     1 # energy   -8.03717473 # occ.  2.00000000
 
ion      s     py     pz     px    dxy    dyz    dz2    dxz  x2-y2    tot
    1  0.017  0.000  0.001  0.000  0.000  0.000  0.000  0.000  0.000  0.018
    2  0.023  0.000  0.002  0.000  0.000  0.000  0.000  0.000  0.000  0.025
    3  0.023  0.000  0.002  0.000  0.000  0.000  0.000  0.000  0.000  0.025
    4  0.023  0.000  0.002  0.000  0.000  0.000  0.000  0.000  0.000  0.025
    5  0.049  0.000  0.000  0.000  0.000  0.000  0.000  0.000  0.000  0.050
    6  0.064  0.000  0.000  0.000  0.000  0.000  0.001  0.000  0.000  0.065
    7  0.063  0.000  0.000  0.000  0.000  0.000  0.001  0.000  0.000  0.064
    8  0.065  0.000  0.000  0.000  0.000  0.000  0.001  0.000  0.000  0.066
    9  0.038  0.000  0.000  0.000  0.000  0.000  0.000  0.000  0.000  0.039
   10  0.045  0.000  0.001  0.000  0.000  0.000  0.001  0.000  0.000  0.046
   11  0.045  0.000  0.000  0.000  0.000  0.000  0.000  0.000  0.000  0.046
   12  0.047  0.000  0.000  0.000  0.000  0.000  0.001  0.000  0.000  0.048
   13  0.011  0.000  0.001  0.000  0.000  0.000  0.000  0.000  0.000  0.012
   14  0.008  0.000  0.001  0.000  0.000  0.000  0.000  0.000  0.000  0.009
   15  0.010  0.000  0.001  0.000  0.000  0.000  0.000  0.000  0.000  0.010
   16  0.010  0.000  0.001  0.000  0.000  0.000  0.000  0.000  0.000  0.011
tot    0.540  0.000  0.013  0.000  0.000  0.000  0.006  0.000  0.000  0.561
 
band     2 # energy   -7.15615775 # occ.  2.00000000
 
ion      s     py     pz     px    dxy    dyz    dz2    dxz  x2-y2    tot
    1  0.022  0.000  0.001  0.000  0.000  0.000  0.001  0.000  0.000  0.024
    2  0.032  0.000  0.001  0.000  0.000  0.000  0.011  0.000  0.001  0.045
    3  0.032  0.000  0.001  0.000  0.002  0.000  0.010  0.000  0.000  0.044
    4  0.032  0.000  0.001  0.000  0.002  0.000  0.005  0.000  0.000  0.040
    5  0.010  0.000  0.002  0.000  0.000  0.000  0.001  0.000  0.000  0.013
    6  0.016  0.000  0.004  0.000  0.001  0.000  0.011  0.000  0.003  0.036
    7  0.017  0.000  0.004  0.000  0.003  0.000  0.017  0.000  0.000  0.041
    8  0.015  0.000  0.004  0.000  0.002  0.000  0.009  0.000  0.002  0.032
    9  0.022  0.000  0.002  0.000  0.000  0.000  0.001  0.000  0.000  0.025
   10  0.031  0.000  0.002  0.000  0.000  0.000  0.018  0.000  0.004  0.056
   11  0.038  0.000  0.002  0.000  0.002  0.000  0.024  0.000  0.002  0.068
   12  0.035  0.000  0.002  0.000  0.002  0.000  0.019  0.000  0.003  0.062
   13  0.030  0.000  0.001  0.000  0.000  0.000  0.000  0.000  0.000  0.032
   14  0.026  0.000  0.001  0.000  0.000  0.000  0.003  0.000  0.000  0.032
   15  0.030  0.000  0.001  0.000  0.000  0.000  0.005  0.000  0.000  0.037
   16  0.031  0.000  0.001  0.000  0.000  0.000  0.006  0.000  0.000  0.039
tot    0.420  0.000  0.030  0.000  0.013  0.000  0.142  0.001  0.018  0.625
 
band     3 # energy   -6.95685457 # occ.  2.00000000
 
ion      s     py     pz     px    dxy    dyz    dz2    dxz  x2-y2    tot
    1  0.005  0.000  0.000  0.000  0.000  0.000  0.001  0.000  0.000  0.006
    2  0.018  0.000  0.000  0.000  0.002  0.000  0.022  0.002  0.025  0.068
    3  0.018  0.000  0.000  0.000  0.012  0.002  0.023  0.000  0.015  0.070
    4  0.011  0.000  0.001  0.000  0.015  0.000  0.096  0.000  0.006  0.129
    5  0.004  0.000  0.000  0.000  0.000  0.000  0.000  0.000  0.000  0.004
    6  0.009  0.000  0.000  0.000  0.001  0.001  0.034  0.000  0.123  0.169
    7  0.010  0.000  0.000  0.000  0.077  0.000  0.037  0.001  0.045  0.171
    8  0.009  0.000  0.001  0.000  0.084  0.000  0.069  0.001  0.033  0.197
    9  0.000  0.000  0.000  0.000  0.000  0.000  0.000  0.000  0.000  0.001
   10  0.000  0.000  0.000  0.000  0.001  0.001  0.000  0.001  0.002  0.006
   11  0.000  0.000  0.000  0.000  0.000  0.000  0.025  0.000  0.001  0.027
   12  0.000  0.000  0.000  0.000  0.000  0.002  0.001  0.000  0.004  0.008
   13  0.000  0.000  0.000  0.000  0.000  0.000  0.000  0.000  0.000  0.001
   14  0.000  0.000  0.000  0.000  0.000  0.000  0.000  0.000  0.000  0.001
   15  0.000  0.000  0.000  0.000  0.000  0.000  0.000  0.000  0.001  0.002
   16  0.000  0.000  0.000  0.000  0.000  0.000  0.000  0.000  0.000  0.000
tot    0.085  0.000  0.003  0.000  0.194  0.008  0.309  0.006  0.254  0.859
 
band     4 # energy   -6.81577834 # occ.  2.00000000
 
ion      s     py     pz     px    dxy    dyz    dz2    dxz  x2-y2    tot
    1  0.001  0.000  0.000  0.000  0.000  0.000  0.000  0.000  0.000  0.003
    2  0.003  0.000  0.000  0.000  0.000  0.005  0.034  0.002  0.064  0.109
    3  0.005  0.000  0.000  0.000  0.037  0.007  0.039  0.001  0.025  0.115
    4  0.019  0.000  0.001  0.000  0.039  0.001  0.001  0.001  0.022  0.083
    5  0.034  0.000  0.000  0.000  0.000  0.000  0.002  0.000  0.000  0.036
    6  0.001  0.000  0.000  0.000  0.001  0.020  0.001  0.000  0.071  0.094
    7  0.000  0.000  0.000  0.000  0.070  0.008  0.016  0.009  0.008  0.111
    8  0.000  0.000  0.001  0.000  0.066  0.007  0.045  0.009  0.014  0.142
    9  0.002  0.000  0.000  0.000  0.000  0.000  0.000  0.000  0.001  0.005
   10  0.000  0.000  0.000  0.000  0.000  0.003  0.013  0.002  0.029  0.049
   11  0.010  0.000  0.000  0.000  0.011  0.001  0.001  0.000  0.014  0.037
   12  0.001  0.000  0.000  0.000  0.011  0.007  0.017  0.000  0.020  0.057
   13  0.000  0.000  0.000  0.000  0.000  0.000  0.000  0.000  0.000  0.001
   14  0.000  0.000  0.000  0.000  0.001  0.000  0.001  0.000  0.001  0.004
   15  0.000  0.000  0.000  0.000  0.001  0.001  0.000  0.000  0.001  0.003
   16  0.000  0.000  0.000  0.000  0.001  0.000  0.000  0.000  0.000  0.002
tot    0.077  0.001  0.005  0.000  0.239  0.060  0.172  0.026  0.271  0.850
 
band     5 # energy   -6.80298581 # occ.  2.00000000
 
ion      s     py     pz     px    dxy    dyz    dz2    dxz  x2-y2    tot
    1  0.005  0.000  0.000  0.000  0.000  0.000  0.000  0.000  0.001  0.006
    2  0.002  0.000  0.000  0.000  0.000  0.003  0.002  0.001  0.031  0.040
    3  0.000  0.000  0.000  0.000  0.040  0.002  0.001  0.003  0.001  0.047
    4  0.000  0.000  0.000  0.000  0.041  0.000  0.002  0.002  0.002  0.046
    5  0.002  0.000  0.000  0.000  0.000  0.000  0.000  0.002  0.000  0.004
    6  0.000  0.000  0.000  0.000  0.003  0.004  0.001  0.011  0.003  0.023
    7  0.004  0.000  0.000  0.000  0.002  0.000  0.025  0.001  0.000  0.032
    8  0.000  0.000  0.000  0.000  0.001  0.011  0.026  0.002  0.004  0.045
    9  0.017  0.000  0.000  0.000  0.000  0.000  0.000  0.000  0.000  0.019
   10  0.006  0.000  0.000  0.000  0.000  0.000  0.012  0.000  0.139  0.158
   11  0.002  0.000  0.001  0.000  0.133  0.000  0.010  0.002  0.021  0.169
   12  0.002  0.000  0.000  0.000  0.132  0.001  0.010  0.003  0.024  0.172
   13  0.008  0.000  0.000  0.000  0.000  0.001  0.000  0.000  0.000  0.009
   14  0.005  0.000  0.000  0.000  0.000  0.000  0.026  0.000  0.001  0.033
   15  0.009  0.000  0.000  0.000  0.003  0.001  0.006  0.003  0.000  0.022
   16  0.009  0.000  0.000  0.000  0.002  0.001  0.006  0.004  0.000  0.021
tot    0.072  0.001  0.003  0.001  0.357  0.024  0.128  0.034  0.227  0.846
 
band     6 # energy   -6.71285377 # occ.  2.00000000
 
ion      s     py     pz     px    dxy    dyz    dz2    dxz  x2-y2    tot
    1  0.011  0.000  0.000  0.000  0.001  0.002  0.001  0.002  0.000  0.018
    2  0.003  0.000  0.000  0.001  0.006  0.015  0.003  0.017  0.016  0.062
    3  0.003  0.001  0.000  0.000  0.005  0.034  0.003  0.000  0.018  0.065
    4  0.001  0.000  0.001  0.000  0.009  0.001  0.022  0.000  0.003  0.038
    5  0.009  0.000  0.000  0.000  0.000  0.001  0.001  0.000  0.000  0.011
    6  0.001  0.000  0.000  0.000  0.000  0.127  0.014  0.000  0.011  0.154
    7  0.000  0.000  0.000  0.000  0.005  0.048  0.027  0.069  0.008  0.157
    8  0.000  0.000  0.000  0.000  0.006  0.042  0.007  0.070  0.006  0.132
    9  0.003  0.000  0.000  0.000  0.001  0.001  0.000  0.003  0.001  0.009
   10  0.003  0.000  0.000  0.000  0.006  0.027  0.007  0.017  0.001  0.061
   11  0.002  0.000  0.000  0.000  0.000  0.003  0.025  0.003  0.001  0.034
   12  0.002  0.000  0.000  0.000  0.001  0.041  0.005  0.004  0.012  0.065
   13  0.001  0.000  0.000  0.000  0.000  0.001  0.000  0.000  0.000  0.002
   14  0.001  0.000  0.000  0.000  0.000  0.001  0.006  0.002  0.002  0.011
   15  0.002  0.000  0.000  0.000  0.001  0.005  0.003  0.000  0.001  0.012
   16  0.002  0.000  0.000  0.000  0.001  0.001  0.002  0.001  0.001  0.007
tot    0.044  0.003  0.002  0.002  0.041  0.349  0.127  0.189  0.082  0.840
 
band     7 # energy   -6.64940222 # occ.  2.00000000
 
ion      s     py     pz     px    dxy    dyz    dz2    dxz  x2-y2    tot
    1  0.007  0.000  0.000  0.000  0.000  0.000  0.000  0.000  0.000  0.008
    2  0.000  0.000  0.000  0.000  0.000  0.003  0.008  0.000  0.005  0.017
    3  0.002  0.000  0.000  0.000  0.007  0.000  0.004  0.009  0.000  0.022
    4  0.002  0.000  0.000  0.000  0.006  0.000  0.004  0.010  0.000  0.023
    5  0.001  0.000  0.000  0.000  0.004  0.000  0.000  0.000  0.000  0.005
    6  0.000  0.000  0.001  0.000  0.035  0.000  0.000  0.002  0.000  0.038
    7  0.006  0.000  0.000  0.000  0.002  0.001  0.010  0.000  0.007  0.026
    8  0.008  0.000  0.000  0.000  0.000  0.000  0.003  0.000  0.009  0.021
    9  0.012  0.000  0.000  0.000  0.000  0.001  0.001  0.000  0.000  0.014
   10  0.000  0.000  0.000  0.000  0.000  0.016  0.056  0.000  0.007  0.081
   11  0.002  0.000  0.000  0.000  0.003  0.001  0.011  0.030  0.004  0.051
   12  0.002  0.000  0.000  0.000  0.004  0.002  0.010  0.029  0.003  0.050
   13  0.000  0.000  0.000  0.000  0.000  0.000  0.001  0.000  0.000  0.002
   14  0.034  0.000  0.001  0.000  0.000  0.000  0.026  0.000  0.080  0.142
   15  0.020  0.000  0.000  0.000  0.083  0.000  0.053  0.001  0.013  0.169
   16  0.018  0.000  0.000  0.000  0.080  0.000  0.053  0.001  0.015  0.166
tot    0.115  0.000  0.004  0.001  0.223  0.025  0.241  0.081  0.146  0.834
 
band     8 # energy   -6.58546647 # occ.  2.00000000
 
ion      s     py     pz     px    dxy    dyz    dz2    dxz  x2-y2    tot
    1  0.006  0.000  0.000  0.000  0.000  0.001  0.000  0.000  0.000  0.007
    2  0.000  0.000  0.000  0.000  0.002  0.023  0.005  0.000  0.006  0.036
    3  0.002  0.000  0.000  0.001  0.003  0.003  0.002  0.047  0.002  0.061
    4  0.000  0.000  0.000  0.001  0.007  0.001  0.003  0.058  0.000  0.070
    5  0.000  0.000  0.000  0.000  0.003  0.000  0.000  0.010  0.000  0.013
    6  0.000  0.000  0.000  0.000  0.031  0.001  0.000  0.078  0.000  0.111
    7  0.009  0.000  0.000  0.000  0.000  0.037  0.007  0.003  0.009  0.067
    8  0.006  0.000  0.000  0.000  0.001  0.031  0.010  0.002  0.005  0.056
    9  0.008  0.000  0.000  0.000  0.000  0.002  0.001  0.000  0.000  0.011
   10  0.000  0.000  0.000  0.000  0.000  0.040  0.021  0.001  0.004  0.067
   11  0.002  0.000  0.000  0.000  0.004  0.003  0.008  0.099  0.001  0.117
   12  0.001  0.000  0.000  0.000  0.002  0.000  0.012  0.092  0.001  0.109
   13  0.008  0.000  0.000  0.000  0.000  0.002  0.001  0.000  0.000  0.012
   14  0.001  0.000  0.000  0.000  0.000  0.002  0.021  0.000  0.000  0.025
   15  0.007  0.000  0.000  0.000  0.001  0.000  0.011  0.014  0.001  0.035
   16  0.006  0.000  0.000  0.000  0.001  0.000  0.014  0.013  0.002  0.036
tot    0.057  0.002  0.002  0.003  0.056  0.148  0.115  0.417  0.034  0.835
 
band     9 # energy   -6.52220989 # occ.  2.00000000
 
ion      s     py     pz     px    dxy    dyz    dz2    dxz  x2-y2    tot
    1  0.024  0.000  0.000  0.000  0.004  0.000  0.006  0.000  0.000  0.035
    2  0.001  0.000  0.000  0.000  0.042  0.002  0.015  0.000  0.058  0.119
    3  0.001  0.000  0.001  0.000  0.055  0.003  0.018  0.000  0.001  0.080
    4  0.015  0.000  0.001  0.000  0.030  0.001  0.002  0.000  0.055  0.103
    5  0.006  0.000  0.000  0.000  0.000  0.003  0.003  0.000  0.000  0.013
    6  0.000  0.000  0.000  0.000  0.000  0.015  0.089  0.003  0.003  0.111
    7  0.003  0.000  0.001  0.000  0.005  0.003  0.014  0.065  0.000  0.091
    8  0.007  0.000  0.000  0.000  0.004  0.000  0.002  0.070  0.000  0.084
    9  0.004  0.000  0.000  0.000  0.005  0.000  0.002  0.000  0.000  0.012
   10  0.000  0.000  0.000  0.000  0.047  0.001  0.004  0.000  0.024  0.076
   11  0.006  0.000  0.000  0.000  0.005  0.001  0.001  0.000  0.052  0.065
   12  0.008  0.000  0.001  0.000  0.018  0.002  0.006  0.000  0.000  0.035
   13  0.000  0.000  0.000  0.000  0.000  0.000  0.000  0.001  0.000  0.001
   14  0.000  0.000  0.000  0.000  0.000  0.000  0.000  0.003  0.001  0.005
   15  0.000  0.000  0.000  0.000  0.001  0.001  0.005  0.001  0.001  0.009
   16  0.000  0.000  0.000  0.000  0.001  0.002  0.000  0.002  0.000  0.006
tot    0.076  0.001  0.005  0.001  0.218  0.034  0.166  0.147  0.196  0.844
 
band    10 # energy   -6.45479901 # occ.  2.00000000
 
ion      s     py     pz     px    dxy    dyz    dz2    dxz  x2-y2    tot
    1  0.000  0.000  0.000  0.000  0.001  0.001  0.000  0.001  0.000  0.004
    2  0.000  0.000  0.000  0.000  0.012  0.008  0.009  0.010  0.000  0.040
    3  0.000  0.000  0.000  0.000  0.001  0.003  0.021  0.000  0.000  0.026
    4  0.000  0.001  0.000  0.000  0.004  0.028  0.000  0.000  0.011  0.044
    5  0.000  0.000  0.000  0.000  0.000  0.000  0.000  0.000  0.024  0.025
    6  0.023  0.000  0.000  0.000  0.005  0.001  0.005  0.001  0.000  0.035
    7  0.009  0.000  0.000  0.000  0.073  0.000  0.001  0.002  0.112  0.196
    8  0.004  0.000  0.000  0.000  0.088  0.001  0.000  0.003  0.162  0.258
    9  0.002  0.000  0.000  0.000  0.001  0.001  0.000  0.001  0.000  0.007
   10  0.001  0.000  0.000  0.000  0.010  0.023  0.001  0.008  0.002  0.044
   11  0.000  0.000  0.000  0.000  0.005  0.040  0.003  0.001  0.003  0.053
   12  0.000  0.000  0.000  0.000  0.001  0.010  0.044  0.000  0.002  0.057
   13  0.006  0.000  0.000  0.000  0.000  0.000  0.001  0.000  0.001  0.009
   14  0.003  0.000  0.000  0.000  0.003  0.000  0.000  0.000  0.018  0.024
   15  0.000  0.000  0.000  0.000  0.007  0.000  0.001  0.000  0.008  0.017
   16  0.000  0.000  0.000  0.000  0.004  0.000  0.002  0.000  0.022  0.029
tot    0.050  0.001  0.002  0.001  0.214  0.116  0.089  0.028  0.365  0.866
 
band    11 # energy   -6.37154250 # occ.  2.00000000
 
ion      s     py     pz     px    dxy    dyz    dz2    dxz  x2-y2    tot
    1  0.000  0.000  0.000  0.000  0.000  0.000  0.000  0.002  0.000  0.004
    2  0.000  0.001  0.000  0.000  0.000  0.058  0.017  0.012  0.001  0.089
    3  0.001  0.000  0.000  0.000  0.000  0.001  0.004  0.022  0.001  0.029
    4  0.000  0.001  0.000  0.000  0.000  0.057  0.002  0.029  0.002  0.092
    5  0.001  0.000  0.000  0.000  0.005  0.009  0.000  0.000  0.000  0.015
    6  0.002  0.000  0.000  0.000  0.067  0.005  0.036  0.000  0.001  0.112
    7  0.001  0.000  0.000  0.000  0.005  0.024  0.005  0.052  0.011  0.098
    8  0.013  0.000  0.001  0.000  0.001  0.026  0.004  0.054  0.020  0.118
    9  0.002  0.001  0.001  0.000  0.000  0.001  0.000  0.002  0.000  0.007
   10  0.000  0.000  0.000  0.000  0.000  0.021  0.000  0.026  0.000  0.048
   11  0.000  0.000  0.001  0.000  0.001  0.046  0.005  0.004  0.000  0.056
   12  0.001  0.000  0.000  0.000  0.001  0.000  0.031  0.004  0.000  0.038
   13  0.012  0.000  0.000  0.000  0.000  0.001  0.002  0.001  0.000  0.016
   14  0.000  0.000  0.000  0.000  0.000  0.002  0.001  0.003  0.035  0.041
   15  0.002  0.000  0.000  0.000  0.031  0.001  0.000  0.001  0.010  0.046
   16  0.000  0.000  0.000  0.000  0.036  0.007  0.001  0.001  0.007  0.051
tot    0.035  0.003  0.004  0.003  0.147  0.259  0.109  0.212  0.089  0.861
 
band    12 # energy   -6.32728926 # occ.  2.00000000
 
ion      s     py     pz     px    dxy    dyz    dz2    dxz  x2-y2    tot
    1  0.003  0.000  0.000  0.000  0.001  0.000  0.001  0.001  0.007  0.014
    2  0.002  0.000  0.000  0.000  0.014  0.000  0.007  0.004  0.006  0.033
    3  0.003  0.000  0.000  0.000  0.045  0.000  0.017  0.003  0.012  0.081
    4  0.001  0.000  0.000  0.000  0.064  0.005  0.001  0.003  0.051  0.123
    5  0.000  0.000  0.000  0.000  0.000  0.000  0.000  0.000  0.001  0.002
    6  0.002  0.000  0.000  0.000  0.000  0.000  0.038  0.000  0.002  0.042
    7  0.000  0.000  0.000  0.000  0.001  0.001  0.036  0.002  0.013  0.053
    8  0.000  0.000  0.000  0.000  0.001  0.000  0.002  0.002  0.017  0.023
    9  0.000  0.000  0.000  0.000  0.002  0.002  0.001  0.001  0.004  0.010
   10  0.012  0.000  0.000  0.000  0.025  0.024  0.006  0.005  0.001  0.074
   11  0.001  0.000  0.001  0.000  0.032  0.032  0.026  0.000  0.042  0.134
   12  0.001  0.000  0.001  0.000  0.014  0.005  0.002  0.000  0.003  0.025
   13  0.024  0.000  0.000  0.000  0.000  0.000  0.002  0.000  0.001  0.026
   14  0.003  0.000  0.000  0.000  0.001  0.002  0.002  0.000  0.062  0.070
   15  0.000  0.000  0.000  0.000  0.029  0.000  0.013  0.005  0.041  0.088
   16  0.000  0.000  0.000  0.000  0.032  0.000  0.001  0.004  0.030  0.067
tot    0.052  0.000  0.003  0.001  0.262  0.071  0.154  0.030  0.292  0.866
 
band    13 # energy   -6.28962157 # occ.  2.00000000
 
ion      s     py     pz     px    dxy    dyz    dz2    dxz  x2-y2    tot
    1  0.000  0.000  0.001  0.000  0.000  0.000  0.004  0.000  0.004  0.009
    2  0.000  0.000  0.000  0.000  0.004  0.001  0.012  0.013  0.000  0.030
    3  0.005  0.000  0.001  0.000  0.013  0.004  0.003  0.000  0.037  0.063
    4  0.004  0.000  0.000  0.000  0.009  0.009  0.005  0.000  0.017  0.045
    5  0.001  0.000  0.000  0.000  0.014  0.004  0.000  0.002  0.001  0.023
    6  0.000  0.000  0.000  0.000  0.196  0.007  0.023  0.020  0.001  0.247
    7  0.003  0.000  0.000  0.000  0.017  0.057  0.031  0.019  0.093  0.221
    8  0.008  0.000  0.000  0.000  0.002  0.003  0.017  0.021  0.012  0.062
    9  0.000  0.000  0.000  0.000  0.001  0.001  0.001  0.001  0.000  0.004
   10  0.008  0.000  0.001  0.000  0.010  0.001  0.020  0.003  0.001  0.043
   11  0.000  0.000  0.000  0.000  0.000  0.015  0.000  0.004  0.002  0.021
   12  0.000  0.000  0.000  0.000  0.003  0.001  0.028  0.006  0.003  0.041
   13  0.001  0.000  0.000  0.000  0.000  0.000  0.000  0.000  0.000  0.001
   14  0.001  0.000  0.000  0.000  0.001  0.013  0.004  0.000  0.007  0.026
   15  0.000  0.000  0.000  0.000  0.009  0.004  0.000  0.007  0.001  0.021
   16  0.000  0.000  0.000  0.000  0.010  0.005  0.005  0.009  0.000  0.029
tot    0.031  0.001  0.003  0.001  0.288  0.124  0.153  0.107  0.179  0.887
 
band    14 # energy   -6.24180719 # occ.  2.00000000
 
ion      s     py     pz     px    dxy    dyz    dz2    dxz  x2-y2    tot
    1  0.001  0.000  0.000  0.000  0.000  0.000  0.000  0.000  0.000  0.001
    2  0.001  0.000  0.000  0.000  0.000  0.003  0.001  0.000  0.015  0.020
    3  0.000  0.000  0.000  0.000  0.007  0.003  0.013  0.006  0.006  0.035
    4  0.000  0.000  0.000  0.000  0.007  0.000  0.004  0.005  0.006  0.023
    5  0.000  0.000  0.000  0.000  0.001  0.001  0.000  0.000  0.001  0.004
    6  0.000  0.000  0.000  0.000  0.020  0.002  0.001  0.002  0.000  0.026
    7  0.001  0.000  0.000  0.000  0.000  0.004  0.005  0.004  0.000  0.015
    8  0.001  0.000  0.000  0.000  0.004  0.017  0.025  0.005  0.018  0.071
    9  0.000  0.000  0.000  0.000  0.000  0.000  0.002  0.000  0.023  0.026
   10  0.012  0.000  0.000  0.000  0.003  0.001  0.004  0.002  0.001  0.021
   11  0.006  0.000  0.001  0.000  0.069  0.001  0.035  0.000  0.134  0.246
   12  0.007  0.000  0.001  0.000  0.082  0.000  0.008  0.000  0.173  0.273
   13  0.005  0.000  0.001  0.000  0.000  0.000  0.009  0.000  0.001  0.016
   14  0.006  0.000  0.000  0.000  0.001  0.012  0.007  0.001  0.010  0.037
   15  0.004  0.000  0.000  0.000  0.002  0.001  0.003  0.007  0.012  0.030
   16  0.003  0.000  0.000  0.000  0.003  0.003  0.000  0.009  0.006  0.026
tot    0.050  0.001  0.003  0.001  0.201  0.049  0.117  0.042  0.406  0.870
 
band    15 # energy   -6.16716689 # occ.  2.00000000
 
ion      s     py     pz     px    dxy    dyz    dz2    dxz  x2-y2    tot
    1  0.001  0.000  0.000  0.000  0.004  0.000  0.002  0.000  0.001  0.008
    2  0.002  0.000  0.000  0.000  0.058  0.000  0.008  0.000  0.003  0.072
    3  0.001  0.000  0.000  0.000  0.001  0.000  0.003  0.000  0.000  0.005
    4  0.003  0.000  0.000  0.000  0.005  0.000  0.005  0.000  0.056  0.069
    5  0.000  0.000  0.000  0.000  0.001  0.000  0.003  0.000  0.001  0.005
    6  0.002  0.000  0.001  0.000  0.005  0.003  0.005  0.005  0.000  0.021
    7  0.001  0.000  0.000  0.000  0.003  0.002  0.000  0.000  0.016  0.022
    8  0.000  0.000  0.000  0.000  0.001  0.000  0.000  0.002  0.003  0.007
    9  0.000  0.000  0.000  0.000  0.020  0.000  0.000  0.000  0.000  0.021
   10  0.001  0.000  0.000  0.000  0.286  0.005  0.009  0.005  0.000  0.305
   11  0.006  0.000  0.000  0.000  0.014  0.000  0.024  0.000  0.070  0.114
   12  0.010  0.000  0.000  0.000  0.010  0.008  0.033  0.000  0.056  0.117
   13  0.000  0.000  0.000  0.000  0.004  0.000  0.000  0.000  0.000  0.005
   14  0.000  0.000  0.000  0.000  0.040  0.004  0.000  0.001  0.002  0.048
   15  0.001  0.000  0.000  0.000  0.003  0.000  0.021  0.002  0.003  0.030
   16  0.000  0.000  0.000  0.000  0.000  0.005  0.017  0.000  0.022  0.044
tot    0.028  0.000  0.002  0.000  0.454  0.029  0.131  0.016  0.233  0.893
 
band    16 # energy   -6.14114750 # occ.  2.00000000
 
ion      s     py     pz     px    dxy    dyz    dz2    dxz  x2-y2    tot
    1  0.000  0.000  0.000  0.000  0.000  0.000  0.000  0.000  0.013  0.014
    2  0.026  0.000  0.002  0.000  0.006  0.001  0.000  0.005  0.001  0.041
    3  0.004  0.000  0.000  0.000  0.030  0.000  0.000  0.004  0.086  0.124
    4  0.001  0.000  0.000  0.000  0.043  0.001  0.000  0.004  0.128  0.177
    5  0.000  0.000  0.001  0.000  0.002  0.002  0.001  0.004  0.002  0.011
    6  0.003  0.000  0.002  0.000  0.039  0.010  0.000  0.049  0.001  0.104
    7  0.003  0.000  0.000  0.000  0.000  0.000  0.000  0.002  0.001  0.006
    8  0.000  0.001  0.000  0.000  0.009  0.065  0.006  0.001  0.040  0.122
    9  0.003  0.000  0.001  0.000  0.001  0.001  0.010  0.000  0.003  0.018
   10  0.011  0.000  0.000  0.000  0.014  0.003  0.003  0.000  0.018  0.048
   11  0.000  0.000  0.000  0.000  0.001  0.003  0.000  0.000  0.025  0.029
   12  0.002  0.000  0.001  0.000  0.000  0.001  0.001  0.000  0.071  0.077
   13  0.007  0.000  0.000  0.000  0.000  0.000  0.001  0.000  0.000  0.010
   14  0.001  0.000  0.000  0.000  0.001  0.002  0.002  0.001  0.009  0.016
   15  0.000  0.000  0.000  0.000  0.013  0.002  0.014  0.000  0.000  0.030
   16  0.001  0.000  0.000  0.000  0.011  0.000  0.026  0.000  0.002  0.040
tot    0.062  0.001  0.007  0.001  0.172  0.090  0.065  0.071  0.400  0.869
 
band    17 # energy   -6.07437559 # occ.  2.00000000
 
ion      s     py     pz     px    dxy    dyz    dz2    dxz  x2-y2    tot
    1  0.003  0.000  0.000  0.000  0.019  0.000  0.004  0.001  0.002  0.029
    2  0.004  0.000  0.000  0.000  0.285  0.001  0.037  0.007  0.005  0.339
    3  0.013  0.000  0.000  0.000  0.020  0.004  0.042  0.001  0.168  0.249
    4  0.004  0.000  0.000  0.000  0.006  0.001  0.011  0.001  0.006  0.029
    5  0.000  0.000  0.000  0.000  0.000  0.000  0.013  0.000  0.001  0.015
    6  0.009  0.000  0.000  0.000  0.004  0.007  0.000  0.000  0.000  0.021
    7  0.002  0.000  0.000  0.000  0.004  0.008  0.001  0.003  0.016  0.035
    8  0.002  0.000  0.000  0.000  0.001  0.000  0.001  0.000  0.006  0.010
    9  0.000  0.000  0.000  0.000  0.000  0.001  0.001  0.002  0.000  0.005
   10  0.000  0.000  0.000  0.000  0.001  0.010  0.032  0.020  0.000  0.064
   11  0.000  0.000  0.000  0.000  0.000  0.001  0.000  0.002  0.002  0.004
   12  0.000  0.000  0.000  0.000  0.000  0.031  0.000  0.001  0.005  0.037
   13  0.000  0.000  0.000  0.000  0.000  0.000  0.000  0.000  0.000  0.001
   14  0.000  0.000  0.000  0.000  0.003  0.011  0.001  0.001  0.001  0.017
   15  0.000  0.000  0.000  0.000  0.000  0.007  0.000  0.007  0.006  0.020
   16  0.003  0.000  0.000  0.000  0.000  0.003  0.000  0.004  0.000  0.011
tot    0.040  0.001  0.002  0.001  0.344  0.086  0.142  0.050  0.220  0.886
 
band    18 # energy   -6.00940327 # occ.  2.00000000
 
ion      s     py     pz     px    dxy    dyz    dz2    dxz  x2-y2    tot
    1  0.000  0.000  0.000  0.000  0.000  0.002  0.001  0.000  0.002  0.005
    2  0.000  0.000  0.000  0.000  0.002  0.004  0.003  0.000  0.000  0.009
    3  0.001  0.000  0.000  0.000  0.008  0.001  0.001  0.044  0.017  0.072
    4  0.002  0.000  0.000  0.000  0.004  0.005  0.002  0.049  0.008  0.070
    5  0.000  0.000  0.000  0.000  0.000  0.000  0.000  0.001  0.001  0.003
    6  0.001  0.000  0.000  0.000  0.000  0.004  0.001  0.014  0.003  0.023
    7  0.002  0.000  0.002  0.000  0.000  0.003  0.003  0.001  0.015  0.026
    8  0.000  0.000  0.000  0.000  0.000  0.013  0.004  0.000  0.016  0.035
    9  0.000  0.000  0.000  0.000  0.000  0.001  0.000  0.000  0.000  0.002
   10  0.000  0.000  0.000  0.000  0.001  0.010  0.001  0.009  0.001  0.022
   11  0.002  0.000  0.000  0.001  0.002  0.007  0.012  0.019  0.000  0.042
   12  0.000  0.000  0.000  0.000  0.001  0.001  0.003  0.021  0.000  0.026
   13  0.000  0.000  0.000  0.000  0.003  0.000  0.000  0.000  0.018  0.021
   14  0.013  0.000  0.001  0.000  0.034  0.014  0.004  0.000  0.002  0.067
   15  0.000  0.000  0.000  0.000  0.065  0.006  0.006  0.009  0.216  0.302
   16  0.009  0.000  0.000  0.000  0.033  0.004  0.017  0.011  0.084  0.158
tot    0.031  0.002  0.004  0.002  0.153  0.074  0.059  0.178  0.383  0.885
 
band    19 # energy   -5.93829462 # occ.  2.00000000
 
ion      s     py     pz     px    dxy    dyz    dz2    dxz  x2-y2    tot
    1  0.000  0.000  0.000  0.000  0.001  0.000  0.000  0.000  0.000  0.002
    2  0.000  0.000  0.000  0.000  0.018  0.000  0.004  0.001  0.001  0.024
    3  0.001  0.000  0.000  0.000  0.001  0.000  0.000  0.004  0.001  0.006
    4  0.001  0.000  0.000  0.000  0.001  0.004  0.001  0.004  0.010  0.021
    5  0.000  0.000  0.000  0.000  0.000  0.000  0.001  0.000  0.000  0.003
    6  0.000  0.000  0.001  0.000  0.000  0.001  0.001  0.000  0.003  0.006
    7  0.001  0.000  0.000  0.000  0.008  0.000  0.000  0.001  0.004  0.013
    8  0.000  0.000  0.000  0.000  0.007  0.004  0.000  0.000  0.003  0.014
    9  0.000  0.000  0.000  0.000  0.002  0.000  0.000  0.001  0.000  0.004
   10  0.000  0.000  0.000  0.000  0.033  0.000  0.002  0.019  0.000  0.054
   11  0.002  0.000  0.000  0.000  0.001  0.004  0.003  0.000  0.004  0.014
   12  0.005  0.000  0.001  0.000  0.002  0.014  0.004  0.001  0.011  0.038
   13  0.000  0.000  0.000  0.000  0.028  0.000  0.000  0.000  0.002  0.030
   14  0.002  0.000  0.000  0.000  0.354  0.001  0.002  0.003  0.000  0.362
   15  0.017  0.000  0.000  0.000  0.002  0.000  0.019  0.001  0.026  0.065
   16  0.014  0.000  0.000  0.000  0.040  0.005  0.005  0.000  0.167  0.231
tot    0.042  0.001  0.003  0.001  0.498  0.033  0.044  0.036  0.230  0.888
 
band    20 # energy   -5.87329493 # occ.  2.00000000
 
ion      s     py     pz     px    dxy    dyz    dz2    dxz  x2-y2    tot
    1  0.000  0.000  0.000  0.000  0.000  0.000  0.001  0.000  0.000  0.002
    2  0.000  0.000  0.000  0.000  0.008  0.049  0.001  0.001  0.000  0.060
    3  0.001  0.000  0.000  0.000  0.001  0.008  0.000  0.024  0.006  0.040
    4  0.000  0.000  0.000  0.000  0.000  0.017  0.004  0.025  0.000  0.046
    5  0.000  0.000  0.000  0.000  0.001  0.000  0.001  0.000  0.000  0.003
    6  0.000  0.000  0.000  0.000  0.015  0.003  0.007  0.005  0.000  0.032
    7  0.000  0.001  0.000  0.000  0.003  0.004  0.004  0.000  0.016  0.028
    8  0.000  0.000  0.002  0.000  0.000  0.005  0.000  0.000  0.001  0.008
    9  0.000  0.000  0.000  0.000  0.000  0.006  0.003  0.000  0.000  0.010
   10  0.001  0.000  0.001  0.000  0.001  0.002  0.007  0.004  0.001  0.017
   11  0.000  0.000  0.000  0.000  0.006  0.029  0.008  0.044  0.008  0.096
   12  0.000  0.000  0.000  0.000  0.004  0.018  0.016  0.045  0.004  0.088
   13  0.000  0.000  0.001  0.000  0.000  0.000  0.007  0.000  0.008  0.016
   14  0.000  0.000  0.000  0.000  0.000  0.087  0.009  0.000  0.002  0.098
   15  0.005  0.000  0.000  0.000  0.041  0.029  0.002  0.046  0.041  0.165
   16  0.004  0.000  0.000  0.000  0.041  0.035  0.008  0.050  0.035  0.173
tot    0.013  0.003  0.007  0.001  0.121  0.293  0.077  0.245  0.122  0.883
 
band    21 # energy   -5.79642892 # occ.  2.00000000
 
ion      s     py     pz     px    dxy    dyz    dz2    dxz  x2-y2    tot
    1  0.000  0.000  0.000  0.000  0.000  0.008  0.000  0.000  0.000  0.009
    2  0.000  0.000  0.000  0.000  0.001  0.030  0.017  0.000  0.000  0.048
    3  0.000  0.000  0.000  0.000  0.004  0.041  0.002  0.034  0.004  0.085
    4  0.000  0.000  0.000  0.000  0.001  0.063  0.004  0.044  0.002  0.115
    5  0.000  0.001  0.001  0.000  0.000  0.002  0.000  0.000  0.000  0.004
    6  0.000  0.001  0.001  0.000  0.011  0.026  0.001  0.008  0.000  0.048
    7  0.001  0.000  0.002  0.000  0.002  0.000  0.002  0.002  0.000  0.010
    8  0.000  0.002  0.000  0.000  0.000  0.066  0.003  0.000  0.007  0.078
    9  0.000  0.000  0.001  0.000  0.000  0.000  0.000  0.000  0.000  0.002
   10  0.000  0.000  0.000  0.000  0.002  0.080  0.000  0.002  0.002  0.087
   11  0.002  0.000  0.000  0.000  0.001  0.025  0.002  0.010  0.001  0.042
   12  0.000  0.000  0.000  0.000  0.000  0.062  0.001  0.015  0.005  0.084
   13  0.000  0.001  0.000  0.000  0.000  0.005  0.000  0.000  0.002  0.010
   14  0.000  0.000  0.000  0.000  0.000  0.016  0.024  0.002  0.001  0.043
   15  0.000  0.000  0.000  0.000  0.019  0.040  0.013  0.010  0.037  0.120
   16  0.000  0.000  0.000  0.000  0.017  0.022  0.019  0.012  0.032  0.103