<?xml version="1.0" encoding="ISO-8859-1"?>
<modeling>
 <generator>
  <i name="program" type="string">vasp </i>
  <i name="version" type="string">6.5.1  </i>
  <i name="subversion" type="string">10Mar25 (build Mar 14 2026 15:48:08) complex                          parallel </i>
  <i name="platform" type="string">LinuxNV </i>
  <i name="date" type="string">2026 03 23 </i>
  <i name="time" type="string">18:08:49 </i>
 </generator>
 <incar>
  <i type="string" name="SYSTEM">Cu-Ag alloy CO adsorption (RPBE, matches CatHub)</i>
  <i type="string" name="PREC">Normal</i>
  <i type="string" name="ALGO">Normal</i>
  <i type="int" name="ISPIN">     1</i>
  <i type="int" name="NELM">   200</i>
  <i type="int" name="IBRION">     2</i>
  <i name="EDIFF">      0.00000100</i>
  <i name="EDIFFG">     -0.03000000</i>
  <i type="int" name="NSW">   200</i>
  <i type="int" name="ISIF">     2</i>
  <i name="ENCUT">    450.00000000</i>
  <i type="string" name="LREAL">Auto</i>
  <i type="int" name="ISMEAR">     0</i>
  <i name="SIGMA">      0.10000000</i>
  <i type="logical" name="LWAVE"> F  </i>
  <i type="logical" name="LCHARG"> F  </i>
  <i type="int" name="LORBIT">    11</i>
  <i type="string" name="GGA">RP</i>
 </incar>
 <primitive_cell>
  <structure name="primitive_cell" >
   <crystal>
    <varray name="basis" >
     <v>       5.61089231       0.00000000       0.00000000 </v>
     <v>       2.80544615       4.85917528       0.00000000 </v>
     <v>       0.00000000       0.00000000      30.87191158 </v>
    </varray>
    <i name="volume">    841.70134257 </i>
    <varray name="rec_basis" >
     <v>       0.17822477      -0.10289812       0.00000000 </v>
     <v>       0.00000000       0.20579624       0.00000000 </v>
     <v>       0.00000000       0.00000000       0.03239190 </v>
    </varray>
   </crystal>
   <varray name="positions" >
    <v>       0.00000000       0.00000000       0.38870285 </v>
    <v>       0.50000000       0.00000000       0.38870285 </v>
    <v>       0.00000000       0.50000000       0.38870285 </v>
    <v>       0.50000000       0.50000000       0.38870285 </v>
    <v>       0.16666667       0.16666667       0.46290095 </v>
    <v>       0.66666667       0.16666667       0.46290095 </v>
    <v>       0.16666667       0.66666667       0.46290095 </v>
    <v>       0.66666667       0.66666667       0.46290095 </v>
    <v>       0.83333333       0.33333333       0.53709905 </v>
    <v>       0.33333333       0.33333333       0.53709905 </v>
    <v>       0.83333333       0.83333333       0.53709905 </v>
    <v>       0.33333333       0.83333333       0.53709905 </v>
    <v>       0.00000000       0.00000000       0.61129715 </v>
    <v>       0.50000000       0.00000000       0.61129715 </v>
    <v>       0.00000000       0.50000000       0.61129715 </v>
    <v>       0.50000000       0.50000000       0.61129715 </v>
   </varray>
  </structure>
  <varray name="primitive_index" >
   <v type="int" >        1 </v>
   <v type="int" >        2 </v>
   <v type="int" >        3 </v>
   <v type="int" >        4 </v>
   <v type="int" >        5 </v>
   <v type="int" >        6 </v>
   <v type="int" >        7 </v>
   <v type="int" >        8 </v>
   <v type="int" >        9 </v>
   <v type="int" >       10 </v>
   <v type="int" >       11 </v>
   <v type="int" >       12 </v>
   <v type="int" >       13 </v>
   <v type="int" >       14 </v>
   <v type="int" >       15 </v>
   <v type="int" >       16 </v>
  </varray>
 </primitive_cell>
 <kpoints>
  <generation param="Gamma">
   <v type="int" name="divisions">       4        4        1 </v>
   <v name="usershift">      0.00000000       0.00000000       0.00000000 </v>
   <v name="genvec1">      0.25000000       0.00000000       0.00000000 </v>
   <v name="genvec2">      0.00000000       0.25000000       0.00000000 </v>
   <v name="genvec3">      0.00000000       0.00000000       1.00000000 </v>
   <v name="shift">      0.00000000       0.00000000       0.00000000 </v>
  </generation>
  <varray name="kpointlist" >
   <v>       0.00000000       0.00000000       0.00000000 </v>
   <v>       0.25000000       0.00000000       0.00000000 </v>
   <v>       0.25000000       0.25000000       0.00000000 </v>
   <v>       0.00000000       0.25000000       0.00000000 </v>
   <v>       0.50000000       0.00000000       0.00000000 </v>
   <v>       0.50000000       0.50000000       0.00000000 </v>
   <v>       0.00000000       0.50000000       0.00000000 </v>
   <v>       0.50000000       0.25000000       0.00000000 </v>
   <v>       0.25000000       0.50000000       0.00000000 </v>
   <v>      -0.25000000       0.25000000       0.00000000 </v>
  </varray>
  <varray name="weights" >
   <v>       0.06250000 </v>
   <v>       0.12500000 </v>
   <v>       0.12500000 </v>
   <v>       0.12500000 </v>
   <v>       0.06250000 </v>
   <v>       0.06250000 </v>
   <v>       0.06250000 </v>
   <v>       0.12500000 </v>
   <v>       0.12500000 </v>
   <v>       0.12500000 </v>
  </varray>
 </kpoints>
 <parameters>
  <separator name="general" >
   <i type="string" name="SYSTEM">Cu-Ag alloy CO adsorption (RPBE, matches</i>
   <i type="logical" name="LCOMPAT"> F  </i>
  </separator>
  <separator name="electronic" >
   <i type="string" name="PREC">normal</i>
   <i name="ENMAX">    450.00000000</i>
   <i name="ENAUG">    586.98000000</i>
   <i name="EDIFF">      0.00000100</i>
   <i type="int" name="IALGO">    38</i>
   <i type="int" name="IWAVPR">    11</i>
   <i type="int" name="NBANDS">   105</i>
   <i type="int" name="NBANDSLOW">    -1</i>
   <i type="int" name="NBANDSHIGH">    -1</i>
   <i name="NELECT">    176.00000000</i>
   <i type="int" name="TURBO">     0</i>
   <i type="int" name="IRESTART">     0</i>
   <i type="int" name="NREBOOT">     0</i>
   <i type="int" name="NMIN">     0</i>
   <i name="EREF">      0.00000000</i>
   <separator name="electronic smearing" >
    <i type="int" name="ISMEAR">     0</i>
    <i name="SIGMA">      0.10000000</i>
    <i name="KSPACING">      0.50000000</i>
    <i type="logical" name="KGAMMA"> T  </i>
    <i type="logical" name="KBLOWUP"> T  </i>
   </separator>
   <separator name="electronic projectors" >
    <i type="logical" name="LREAL"> T  </i>
    <v name="ROPT">     -0.00050000     -0.00050000     -0.00050000     -0.00050000     -0.00050000     -0.00050000     -0.00050000     -0.00050000</v>
    <i type="int" name="LMAXPAW">  -100</i>
    <i type="int" name="LMAXMIX">     2</i>
    <i type="logical" name="NLSPLINE"> F  </i>
   </separator>
   <separator name="electronic startup" >
    <i type="int" name="ISTART">     0</i>
    <i type="int" name="ICHARG">     2</i>
    <i type="int" name="INIWAV">     1</i>
   </separator>
   <separator name="electronic spin" >
    <i type="int" name="ISPIN">     1</i>
    <i type="logical" name="LNONCOLLINEAR"> F  </i>
    <v name="MAGMOM">      1.00000000      1.00000000      1.00000000      1.00000000      1.00000000      1.00000000      1.00000000      1.00000000      1.00000000      1.00000000      1.00000000      1.00000000      1.00000000      1.00000000      1.00000000      1.00000000</v>
    <i name="NUPDOWN">     -1.00000000</i>
    <i type="logical" name="LSORBIT"> F  </i>
    <v name="SAXIS">      0.00000000      0.00000000      1.00000000</v>
    <i type="logical" name="LSPIRAL"> F  </i>
    <v name="QSPIRAL">      0.00000000      0.00000000      0.00000000</v>
    <i type="logical" name="LZEROZ"> F  </i>
   </separator>
   <separator name="electronic exchange-correlation" >
    <i type="logical" name="LASPH"> F  </i>
   </separator>
   <separator name="electronic convergence" >
    <i type="int" name="NELM">   200</i>
    <i type="int" name="NELMDL">    -5</i>
    <i type="int" name="NELMIN">     2</i>
    <i name="ENINI">    450.00000000</i>
    <separator name="electronic convergence detail" >
     <i type="logical" name="LDIAG"> T  </i>
     <i type="logical" name="LSUBROT"> F  </i>
     <i type="logical" name="LROBUST"> F  </i>
     <i type="int" name="ISEARCH">     0</i>
     <i name="WEIMIN">      0.00100000</i>
     <i name="EBREAK">      0.00000000</i>
     <i name="DEPER">      0.30000000</i>
     <i type="int" name="NRMM">     4</i>
     <i name="TIME">      0.40000000</i>
    </separator>
   </separator>
   <separator name="electronic mixer" >
    <i name="AMIX">      0.40000000</i>
    <i name="BMIX">      1.00000000</i>
    <i name="AMIN">      0.10000000</i>
    <i name="AMIX_MAG">      1.60000000</i>
    <i name="BMIX_MAG">      1.00000000</i>
    <separator name="electronic mixer details" >
     <i type="int" name="IMIX">     4</i>
     <i type="logical" name="MIXFIRST"> F  </i>
     <i type="int" name="MAXMIX">   -45</i>
     <i name="WC">    100.00000000</i>
     <i type="int" name="INIMIX">     1</i>
     <i type="int" name="MIXPRE">     1</i>
     <i type="int" name="MREMOVE">     5</i>
    </separator>
   </separator>
   <separator name="electronic dipolcorrection" >
    <i type="logical" name="LDIPOL"> F  </i>
    <i type="logical" name="LMONO"> F  </i>
    <i type="int" name="IDIPOL">     0</i>
    <i name="EPSILON">      1.00000000</i>
    <v name="DIPOL">   -100.00000000   -100.00000000   -100.00000000</v>
    <i name="EFIELD">      0.00000000</i>
    <i type="logical" name="LVACPOTAV"> F  </i>
   </separator>
  </separator>
  <separator name="grids" >
   <i type="int" name="NGX">    30</i>
   <i type="int" name="NGY">    30</i>
   <i type="int" name="NGZ">   160</i>
   <i type="int" name="NGXF">    60</i>
   <i type="int" name="NGYF">    60</i>
   <i type="int" name="NGZF">   320</i>
   <i type="logical" name="ADDGRID"> F  </i>
  </separator>
  <separator name="ionic" >
   <i type="int" name="NSW">   200</i>
   <i type="int" name="IBRION">     2</i>
   <i type="int" name="MDALGO">     0</i>
   <i type="int" name="ISIF">     2</i>
   <i name="PSTRESS">      0.00000000</i>
   <i name="EDIFFG">     -0.03000000</i>
   <i type="int" name="NFREE">     1</i>
   <i name="POTIM">      0.50000000</i>
   <i name="SMASS">     -3.00000000</i>
   <i name="SCALEE">      1.00000000</i>
  </separator>
  <separator name="ionic md" >
   <i name="TEBEG">      0.00010000</i>
   <i name="TEEND">      0.00010000</i>
   <i type="int" name="NBLOCK">     1</i>
   <i type="int" name="KBLOCK">   200</i>
   <i type="int" name="NPACO">   256</i>
   <i name="APACO">     10.00000000</i>
  </separator>
  <separator name="symmetry" >
   <i type="int" name="ISYM">     2</i>
   <i name="SYMPREC">      0.00001000</i>
  </separator>
  <separator name="dos" >
   <i type="int" name="LORBIT">    11</i>
   <v name="RWIGS">     -1.00000000     -1.00000000     -1.00000000     -1.00000000     -1.00000000     -1.00000000     -1.00000000     -1.00000000</v>
   <i type="int" name="NEDOS">   301</i>
   <i name="EMIN">     10.00000000</i>
   <i name="EMAX">    -10.00000000</i>
   <i name="EFERMI">      0.00000000</i>
  </separator>
  <separator name="writing" >
   <i type="int" name="NWRITE">     2</i>
   <i type="logical" name="LWAVE"> F  </i>
   <i type="logical" name="LDOWNSAMPLE"> F  </i>
   <i type="logical" name="LCHARG"> F  </i>
   <i type="logical" name="LPARD"> F  </i>
   <i type="logical" name="LVTOT"> F  </i>
   <i type="logical" name="LVHAR"> F  </i>
   <i type="logical" name="LELF"> F  </i>
   <i type="logical" name="LOPTICS"> F  </i>
   <v name="STM">      0.00000000      0.00000000      0.00000000      0.00000000      0.00000000      0.00000000      0.00000000</v>
  </separator>
  <separator name="performance" >
   <i type="int" name="NPAR">     1</i>
   <i type="int" name="NSIM">     4</i>
   <i type="int" name="NBLK">    -1</i>
   <i type="logical" name="LPLANE"> T  </i>
   <i type="logical" name="LSCALAPACK"> T  </i>
   <i type="logical" name="LSCAAWARE"> F  </i>
   <i type="logical" name="LSCALU"> F  </i>
   <i type="logical" name="LASYNC"> F  </i>
   <i type="logical" name="LORBITALREAL"> F  </i>
  </separator>
  <separator name="miscellaneous" >
   <i type="int" name="IDIOT">     3</i>
   <i type="int" name="PHON_NSTRUCT">    -1</i>
   <i type="logical" name="LMUSIC"> F  </i>
   <v name="POMASS">     63.54600000    107.86800000     63.54600000    107.86800000     63.54600000    107.86800000     63.54600000    107.86800000</v>
   <v name="DARWINR">      0.00000000      0.00000000      0.00000000      0.00000000      0.00000000      0.00000000      0.00000000      0.00000000</v>
   <v name="DARWINV">      1.00000000      1.00000000      1.00000000      1.00000000      1.00000000      1.00000000      1.00000000      1.00000000</v>
   <i type="logical" name="LCORR"> T  </i>
  </separator>
  <i type="logical" name="GGA_COMPAT"> T  </i>
  <i type="logical" name="LBERRY"> F  </i>
  <i type="int" name="ICORELEVEL">     0</i>
  <i type="logical" name="LDAU"> F  </i>
  <i type="int" name="I_CONSTRAINED_M">     0</i>
  <separator name="electronic exchange-correlation" >
   <i type="string" name="GGA    ">RP</i>
   <i type="string" name="XC_C">1</i>
   <i type="int" name="VOSKOWN">     0</i>
   <i type="logical" name="LHFCALC"> F  </i>
   <i type="string" name="PRECFOCK"></i>
   <i type="logical" name="LSYMGRAD"> F  </i>
   <i type="logical" name="LHFONE"> F  </i>
   <i type="logical" name="LRHFCALC"> F  </i>
   <i type="logical" name="LTHOMAS"> F  </i>
   <i type="logical" name="LMODELHF"> F  </i>
   <i type="logical" name="LFOCKACE"> F  </i>
   <i name="ENCUT4O">     -1.00000000</i>
   <i type="int" name="EXXOEP">     0</i>
   <i type="int" name="FOURORBIT">     0</i>
   <i name="AEXX">      0.00000000</i>
   <i name="HFALPHA">      0.00000000</i>
   <i name="MCALPHA">      0.00000000</i>
   <i name="ALDAX">      1.00000000</i>
   <i name="AGGAX">      1.00000000</i>
   <i name="AMGGAX">      1.00000000</i>
   <i name="ALDAC">      1.00000000</i>
   <i name="AGGAC">      1.00000000</i>
   <i name="AMGGAC">      1.00000000</i>
   <i type="int" name="NKREDX">     1</i>
   <i type="int" name="NKREDY">     1</i>
   <i type="int" name="NKREDZ">     1</i>
   <i type="logical" name="SHIFTRED"> F  </i>
   <i type="logical" name="ODDONLY"> F  </i>
   <i type="logical" name="EVENONLY"> F  </i>
   <i type="int" name="LMAXFOCK">     0</i>
   <i type="int" name="NMAXFOCKAE">     0</i>
   <i type="logical" name="LFOCKAEDFT"> F  </i>
   <i name="HFSCREEN">      0.00000000</i>
   <i name="HFSCREENC">      0.00000000</i>
   <i type="int" name="NBANDSGWLOW">     0</i>
  </separator>
  <separator name="vdW DFT" >
   <i type="logical" name="LUSE_VDW"> F  </i>
   <i type="int" name="IVDW_NL">    -1</i>
   <i type="logical" name="LSPIN_VDW"> F  </i>
   <i name="ZAB_VDW">     -0.84910000</i>
   <i name="GAMMA_VDW">      1.39626340</i>
   <i name="ALPHA_VDW">      0.00000000</i>
   <i name="PARAM1">      0.12340000</i>
   <i name="PARAM2">      1.00000000</i>
   <i name="BPARAM">      6.30000000</i>
   <i name="CPARAM">      0.00930000</i>
  </separator>
  <separator name="model GW" >
   <i type="int" name="MODEL_GW">     0</i>
   <i name="MODEL_EPS0">     31.56380035</i>
   <i name="MODEL_ALPHA">      1.00000000</i>
  </separator>
  <separator name="linear response parameters" >
   <i type="logical" name="LEPSILON"> F  </i>
   <i type="logical" name="LRPA"> F  </i>
   <i type="logical" name="LNABLA"> F  </i>
   <i type="logical" name="LVEL"> F  </i>
   <i name="CSHIFT">      0.10000000</i>
   <i name="OMEGAMAX">     -1.00000000</i>
   <i name="DEG_THRESHOLD">      0.00200000</i>
   <i name="RTIME">     -0.10000000</i>
   <i name="WPLASMAI">      0.00000000</i>
   <v name="DFIELD">      0.00000000      0.00000000      0.00000000</v>
   <v name="WPLASMA">      0.00000000      0.00000000      0.00000000      0.00000000      0.00000000      0.00000000      0.00000000      0.00000000      0.00000000</v>
  </separator>
  <separator name="orbital magnetization" >
   <i type="logical" name="NUCIND"> F  </i>
   <v name="MAGPOS">      0.00000000      0.00000000      0.00000000</v>
   <i type="logical" name="LNICSALL"> T  </i>
   <i type="logical" name="ORBITALMAG"> F  </i>
   <i type="logical" name="LMAGBLOCH"> F  </i>
   <i type="logical" name="LCHIMAG"> F  </i>
   <i type="logical" name="LGAUGE"> T  </i>
   <i type="int" name="MAGATOM">     0</i>
   <v name="MAGDIPOL">      0.00000000      0.00000000      0.00000000</v>
   <v name="AVECCONST">      0.00000000      0.00000000      0.00000000</v>
  </separator>
  <separator name="response functions" >
   <i type="logical" name="LALL_IN_ONE"> F  </i>
   <i type="int" name="IALL_IN_ONE">    -1</i>
   <i type="int" name="NBANDS_WAVE">    -1</i>
   <i type="logical" name="LFINITE_TEMPERATURE"> F  </i>
   <i type="logical" name="LADDER"> F  </i>
   <i type="logical" name="LRPAFORCE"> F  </i>
   <i type="logical" name="LFXC"> F  </i>
   <i type="logical" name="LHARTREE"> T  </i>
   <i type="int" name="IBSE">     2</i>
   <v type="int" name="KPOINT">    -1     0     0     0</v>
   <i type="logical" name="LTCTC"> F  </i>
   <i type="logical" name="LTCTE"> F  </i>
   <i type="logical" name="LTETE"> F  </i>
   <i type="logical" name="LTRIPLET"> F  </i>
   <i type="logical" name="LFXCEPS"> F  </i>
   <i type="logical" name="LFXHEG"> F  </i>
   <i type="int" name="NATURALO">     2</i>
   <i type="logical" name="LHOLEGF"> F  </i>
   <i type="logical" name="L2ORDER"> F  </i>
   <i type="logical" name="LDMP1"> F  </i>
   <i type="logical" name="LMP2LT"> F  </i>
   <i type="logical" name="LSMP2LT"> F  </i>
   <i type="logical" name="LGWLF"> F  </i>
   <i name="ENCUTGW">     -1.60000002</i>
   <i name="ENCUTGWSOFT">     -1.60000002</i>
   <i name="ENCUTLF">     -1.00000000</i>
   <i type="logical" name="ESF_SPLINES"> F  </i>
   <i name="ESF_CONV">      0.01000000</i>
   <i type="int" name="ESF_NINTER">    15</i>
   <i type="int" name="LMAXMP2">    -1</i>
   <i name="SCISSOR">      0.00000000</i>
   <i type="int" name="NOMEGA">     0</i>
   <i type="int" name="NOMEGAR">     0</i>
   <i type="int" name="NBANDSGW">    -1</i>
   <i type="int" name="NBANDSO">    -1</i>
   <i type="int" name="NBANDSV">    -1</i>
   <i type="int" name="NELMGW">     1</i>
   <i type="int" name="NELMHF">     1</i>
   <i type="int" name="DIM">     3</i>
   <i type="int" name="IESPILON">     4</i>
   <i type="int" name="ANTIRES">     0</i>
   <i name="OMEGAMAX">    -30.00000000</i>
   <i name="OMEGAMIN">    -30.00000000</i>
   <i name="OMEGATL">   -200.00000000</i>
   <i type="int" name="OMEGAGRID">     0</i>
   <i name="CSHIFT">     -0.10000000</i>
   <i type="logical" name="LSELFENERGY"> F  </i>
   <i type="logical" name="LSPECTRAL"> F  </i>
   <i type="logical" name="LSPECTRALGW"> F  </i>
   <i type="logical" name="LSINGLES"> F  </i>
   <i type="logical" name="LFERMIGW"> F  </i>
   <i type="logical" name="ODDONLYGW"> F  </i>
   <i type="logical" name="EVENONLYGW"> F  </i>
   <i type="int" name="NKREDLFX">     1</i>
   <i type="int" name="NKREDLFY">     1</i>
   <i type="int" name="NKREDLFZ">     1</i>
   <i type="int" name="MAXMEM">  2800</i>
   <i type="int" name="TELESCOPE">     0</i>
   <i type="int" name="NTAUPAR">    -1</i>
   <i type="int" name="NOMEGAPAR">    -1</i>
   <i name="DAMP_NEWTON">      0.80000001</i>
   <i name="LAMBDA">      1.00000000</i>
  </separator>
  <separator name="External order field" >
   <i name="OFIELD_KAPPA">      0.00000000</i>
   <v name="OFIELD_K">      0.00000000      0.00000000      0.00000000</v>
   <i name="OFIELD_Q6_NEAR">      0.00000000</i>
   <i name="OFIELD_Q6_FAR">      0.00000000</i>
   <i name="OFIELD_A">      0.00000000</i>
  </separator>
  <separator name="optional k-points parameters" >
   <i type="int" name="KPOINTS_OPT_MODE">     1</i>
   <i type="logical" name="LKPOINTS_OPT"> F  </i>
  </separator>
 </parameters>
 <atominfo>
  <atoms>      16 </atoms>
  <types>       8 </types>
  <array name="atoms" >
   <dimension dim="1">ion</dimension>
   <field type="string">element</field>
   <field type="int">atomtype</field>
   <set>
    <rc><c>Cu</c><c>   1</c></rc>
    <rc><c>Ag</c><c>   2</c></rc>
    <rc><c>Ag</c><c>   2</c></rc>
    <rc><c>Ag</c><c>   2</c></rc>
    <rc><c>Cu</c><c>   3</c></rc>
    <rc><c>Ag</c><c>   4</c></rc>
    <rc><c>Ag</c><c>   4</c></rc>
    <rc><c>Ag</c><c>   4</c></rc>
    <rc><c>Cu</c><c>   5</c></rc>
    <rc><c>Ag</c><c>   6</c></rc>
    <rc><c>Ag</c><c>   6</c></rc>
    <rc><c>Ag</c><c>   6</c></rc>
    <rc><c>Cu</c><c>   7</c></rc>
    <rc><c>Ag</c><c>   8</c></rc>
    <rc><c>Ag</c><c>   8</c></rc>
    <rc><c>Ag</c><c>   8</c></rc>
   </set>
  </array>
  <array name="atomtypes" >
   <dimension dim="1">type</dimension>
   <field type="int">atomspertype</field>
   <field type="string">element</field>
   <field>mass</field>
   <field>valence</field>
   <field type="string">pseudopotential</field>
   <set>
    <rc><c>   1</c><c>Cu</c><c>     63.54600000</c><c>     11.00000000</c><c>  PAW_PBE Cu 22Jun2005                  </c></rc>
    <rc><c>   3</c><c>Ag</c><c>    107.86800000</c><c>     11.00000000</c><c>  PAW_PBE Ag 02Apr2005                  </c></rc>
    <rc><c>   1</c><c>Cu</c><c>     63.54600000</c><c>     11.00000000</c><c>  PAW_PBE Cu 22Jun2005                  </c></rc>
    <rc><c>   3</c><c>Ag</c><c>    107.86800000</c><c>     11.00000000</c><c>  PAW_PBE Ag 02Apr2005                  </c></rc>
    <rc><c>   1</c><c>Cu</c><c>     63.54600000</c><c>     11.00000000</c><c>  PAW_PBE Cu 22Jun2005                  </c></rc>
    <rc><c>   3</c><c>Ag</c><c>    107.86800000</c><c>     11.00000000</c><c>  PAW_PBE Ag 02Apr2005                  </c></rc>
    <rc><c>   1</c><c>Cu</c><c>     63.54600000</c><c>     11.00000000</c><c>  PAW_PBE Cu 22Jun2005                  </c></rc>
    <rc><c>   3</c><c>Ag</c><c>    107.86800000</c><c>     11.00000000</c><c>  PAW_PBE Ag 02Apr2005                  </c></rc>
   </set>
  </array>
 </atominfo>
 <structure name="initialpos" >
  <crystal>
   <varray name="basis" >
    <v>       5.61089231       0.00000000       0.00000000 </v>
    <v>       2.80544615       4.85917528       0.00000000 </v>
    <v>       0.00000000       0.00000000      30.87191158 </v>
   </varray>
   <i name="volume">    841.70134257 </i>
   <varray name="rec_basis" >
    <v>       0.17822477      -0.10289812       0.00000000 </v>
    <v>       0.00000000       0.20579624       0.00000000 </v>
    <v>       0.00000000       0.00000000       0.03239190 </v>
   </varray>
  </crystal>
  <varray name="positions" >
   <v>       0.00000000       0.00000000       0.38870285 </v>
   <v>       0.50000000       0.00000000       0.38870285 </v>
   <v>       0.00000000       0.50000000       0.38870285 </v>
   <v>       0.50000000       0.50000000       0.38870285 </v>
   <v>       0.16666667       0.16666667       0.46290095 </v>
   <v>       0.66666667       0.16666667       0.46290095 </v>
   <v>       0.16666667       0.66666667       0.46290095 </v>
   <v>       0.66666667       0.66666667       0.46290095 </v>
   <v>       0.83333333       0.33333333       0.53709905 </v>
   <v>       0.33333333       0.33333333       0.53709905 </v>
   <v>       0.83333333       0.83333333       0.53709905 </v>
   <v>       0.33333333       0.83333333       0.53709905 </v>
   <v>       0.00000000       0.00000000       0.61129715 </v>
   <v>       0.50000000       0.00000000       0.61129715 </v>
   <v>       0.00000000       0.50000000       0.61129715 </v>
   <v>       0.50000000       0.50000000       0.61129715 </v>
  </varray>
  <varray name="selective"  type="logical" >
   <v type="logical" >  F  F  F </v>
   <v type="logical" >  F  F  F </v>
   <v type="logical" >  F  F  F </v>
   <v type="logical" >  F  F  F </v>
   <v type="logical" >  F  F  F </v>
   <v type="logical" >  F  F  F </v>
   <v type="logical" >  F  F  F </v>
   <v type="logical" >  F  F  F </v>
   <v type="logical" >  T  T  T </v>
   <v type="logical" >  T  T  T </v>
   <v type="logical" >  T  T  T </v>
   <v type="logical" >  T  T  T </v>
   <v type="logical" >  T  T  T </v>
   <v type="logical" >  T  T  T </v>
   <v type="logical" >  T  T  T </v>
   <v type="logical" >  T  T  T </v>
  </varray>
  <nose>
   <v>      -3.00000000       0.00000000       0.00010000       0.00010000 </v>
  </nose>
 </structure>
 <calculation>
  <scstep>
   <time name="dav">    1.48    1.49</time>
   <time name="total">    1.52    1.53</time>
   <energy>
    <i name="alphaZ">    249.63246818 </i>
    <i name="ewald"> 118133.79314594 </i>
    <i name="hartreedc">-135922.11934514 </i>
    <i name="XCdc">     45.13442580 </i>
    <i name="pawpsdc">  16967.66628738 </i>
    <i name="pawaedc"> -16821.60918554 </i>
    <i name="eentropy">     -0.02969029 </i>
    <i name="bandstr">    638.55426855 </i>
    <i name="atom">  18000.17425575 </i>
    <i name="e_fr_energy">   1291.19663063 </i>
    <i name="e_wo_entrp">   1291.22632092 </i>
    <i name="e_0_energy">   1291.21147577 </i>
   </energy>
  </scstep>
  <scstep>
   <time name="dav">    1.40    1.41</time>
   <time name="total">    1.40    1.41</time>
   <energy>
    <i name="e_fr_energy">     89.73495057 </i>
    <i name="e_wo_entrp">     89.76381439 </i>
    <i name="e_0_energy">     89.74938248 </i>
   </energy>
  </scstep>
  <scstep>
   <time name="dav">    1.71    1.71</time>
   <time name="total">    1.71    1.72</time>
   <energy>
    <i name="e_fr_energy">    -34.04053776 </i>
    <i name="e_wo_entrp">    -33.97876223 </i>
    <i name="e_0_energy">    -34.00964999 </i>
   </energy>
  </scstep>
  <scstep>
   <time name="dav">    1.77    1.78</time>
   <time name="total">    1.77    1.78</time>
   <energy>
    <i name="e_fr_energy">    -39.38591851 </i>
    <i name="e_wo_entrp">    -39.32125724 </i>
    <i name="e_0_energy">    -39.35358788 </i>
   </energy>
  </scstep>
  <scstep>
   <time name="dav">    1.86    1.87</time>
   <time name="total">    2.00    2.00</time>
   <energy>
    <i name="e_fr_energy">    -39.46776358 </i>
    <i name="e_wo_entrp">    -39.40318721 </i>
    <i name="e_0_energy">    -39.43547540 </i>
   </energy>
  </scstep>
  <scstep>
   <time name="dav">    1.81    1.82</time>
   <time name="total">    1.97    1.97</time>
   <energy>
    <i name="e_fr_energy">    -37.85880116 </i>
    <i name="e_wo_entrp">    -37.82615994 </i>
    <i name="e_0_energy">    -37.84248055 </i>
   </energy>
  </scstep>
  <scstep>
   <time name="dav">    1.60    1.60</time>
   <time name="total">    1.76    1.76</time>
   <energy>
    <i name="e_fr_energy">    -35.20661661 </i>
    <i name="e_wo_entrp">    -35.15655540 </i>
    <i name="e_0_energy">    -35.18158601 </i>
   </energy>
  </scstep>
  <scstep>
   <time name="dav">    1.91    1.92</time>
   <time name="total">    2.07    2.08</time>
   <energy>
    <i name="e_fr_energy">    -35.29873563 </i>
    <i name="e_wo_entrp">    -35.26298261 </i>
    <i name="e_0_energy">    -35.28085912 </i>
   </energy>
  </scstep>
  <scstep>
   <time name="dav">    1.93    1.93</time>
   <time name="total">    2.09    2.09</time>
   <energy>
    <i name="e_fr_energy">    -35.39157097 </i>
    <i name="e_wo_entrp">    -35.35567245 </i>
    <i name="e_0_energy">    -35.37362171 </i>
   </energy>
  </scstep>
  <scstep>
   <time name="dav">    1.85    1.86</time>
   <time name="total">    2.01    2.02</time>
   <energy>
    <i name="e_fr_energy">    -35.20269488 </i>
    <i name="e_wo_entrp">    -35.16964547 </i>
    <i name="e_0_energy">    -35.18617017 </i>
   </energy>
  </scstep>
  <scstep>
   <time name="dav">    1.96    1.96</time>
   <time name="total">    2.12    2.12</time>
   <energy>
    <i name="e_fr_energy">    -35.18246310 </i>
    <i name="e_wo_entrp">    -35.14760250 </i>
    <i name="e_0_energy">    -35.16503280 </i>
   </energy>
  </scstep>
  <scstep>
   <time name="dav">    1.89    1.89</time>
   <time name="total">    2.05    2.05</time>
   <energy>
    <i name="e_fr_energy">    -35.18366064 </i>
    <i name="e_wo_entrp">    -35.14884998 </i>
    <i name="e_0_energy">    -35.16625531 </i>
   </energy>
  </scstep>
  <scstep>
   <time name="dav">    1.78    1.78</time>
   <time name="total">    1.94    1.94</time>
   <energy>
    <i name="e_fr_energy">    -35.18285627 </i>
    <i name="e_wo_entrp">    -35.14815604 </i>
    <i name="e_0_energy">    -35.16550615 </i>
   </energy>
  </scstep>
  <scstep>
   <time name="dav">    1.76    1.77</time>
   <time name="total">    1.92    1.92</time>
   <energy>
    <i name="e_fr_energy">    -35.18281937 </i>
    <i name="e_wo_entrp">    -35.14820829 </i>
    <i name="e_0_energy">    -35.16551383 </i>
   </energy>
  </scstep>
  <scstep>
   <time name="dav">    1.76    1.77</time>
   <time name="total">    1.92    1.93</time>
   <energy>
    <i name="e_fr_energy">    -35.18277503 </i>
    <i name="e_wo_entrp">    -35.14821750 </i>
    <i name="e_0_energy">    -35.16549627 </i>
   </energy>
  </scstep>
  <scstep>
   <time name="dav">    1.81    1.82</time>
   <time name="total">    1.97    1.98</time>
   <energy>
    <i name="e_fr_energy">    -35.18278540 </i>
    <i name="e_wo_entrp">    -35.14824742 </i>
    <i name="e_0_energy">    -35.16551641 </i>
   </energy>
  </scstep>
  <scstep>
   <time name="dav">    1.80    1.80</time>
   <time name="total">    1.96    1.96</time>
   <energy>
    <i name="e_fr_energy">    -35.18284062 </i>
    <i name="e_wo_entrp">    -35.14828983 </i>
    <i name="e_0_energy">    -35.16556522 </i>
   </energy>
  </scstep>
  <scstep>
   <time name="dav">    1.80    1.81</time>
   <time name="total">    1.96    1.97</time>
   <energy>
    <i name="e_fr_energy">    -35.18295918 </i>
    <i name="e_wo_entrp">    -35.14838561 </i>
    <i name="e_0_energy">    -35.16567239 </i>
   </energy>
  </scstep>
  <scstep>
   <time name="dav">    1.51    1.51</time>
   <time name="total">    1.67    1.67</time>
   <energy>
    <i name="e_fr_energy">    -35.18310595 </i>
    <i name="e_wo_entrp">    -35.14853067 </i>
    <i name="e_0_energy">    -35.16581831 </i>
   </energy>
  </scstep>
  <scstep>
   <time name="dav">    1.45    1.45</time>
   <time name="total">    1.61    1.62</time>
   <energy>
    <i name="e_fr_energy">    -35.18319785 </i>
    <i name="e_wo_entrp">    -35.14863280 </i>
    <i name="e_0_energy">    -35.16591532 </i>
   </energy>
  </scstep>
  <scstep>
   <time name="dav">    1.27    1.27</time>
   <time name="total">    1.43    1.43</time>
   <energy>
    <i name="e_fr_energy">    -35.18326361 </i>
    <i name="e_wo_entrp">    -35.14870511 </i>
    <i name="e_0_energy">    -35.16598436 </i>
   </energy>
  </scstep>
  <scstep>
   <time name="dav">    1.08    1.08</time>
   <time name="total">    1.25    1.25</time>
   <energy>
    <i name="e_fr_energy">    -35.18330308 </i>
    <i name="e_wo_entrp">    -35.14874329 </i>
    <i name="e_0_energy">    -35.16602318 </i>
   </energy>
  </scstep>
  <scstep>
   <time name="dav">    1.04    1.04</time>
   <time name="total">    1.20    1.20</time>
   <energy>
    <i name="e_fr_energy">    -35.18333537 </i>
    <i name="e_wo_entrp">    -35.14877739 </i>
    <i name="e_0_energy">    -35.16605638 </i>
   </energy>
  </scstep>
  <scstep>
   <time name="dav">    1.01    1.01</time>
   <time name="total">    1.17    1.17</time>
   <energy>
    <i name="e_fr_energy">    -35.18335498 </i>
    <i name="e_wo_entrp">    -35.14879670 </i>
    <i name="e_0_energy">    -35.16607584 </i>
   </energy>
  </scstep>
  <scstep>
   <time name="dav">    1.02    1.02</time>
   <time name="total">    1.19    1.19</time>
   <energy>
    <i name="e_fr_energy">    -35.18336182 </i>
    <i name="e_wo_entrp">    -35.14880558 </i>
    <i name="e_0_energy">    -35.16608370 </i>
   </energy>
  </scstep>
  <scstep>
   <time name="dav">    1.00    1.00</time>
   <time name="total">    1.16    1.17</time>
   <energy>
    <i name="e_fr_energy">    -35.18336748 </i>
    <i name="e_wo_entrp">    -35.14881063 </i>
    <i name="e_0_energy">    -35.16608906 </i>
   </energy>
  </scstep>
  <scstep>
   <time name="dav">    0.98    0.99</time>
   <time name="total">    1.15    1.15</time>
   <energy>
    <i name="e_fr_energy">    -35.18336916 </i>
    <i name="e_wo_entrp">    -35.14881099 </i>
    <i name="e_0_energy">    -35.16609008 </i>
   </energy>
  </scstep>
  <scstep>
   <time name="dav">    0.96    0.96</time>
   <time name="total">    0.98    0.99</time>
   <energy>
    <i name="alphaZ">    249.63246818 </i>
    <i name="ewald"> 118133.79314594 </i>
    <i name="hartreedc">-135792.90002974 </i>
    <i name="XCdc">     37.71288558 </i>
    <i name="pawpsdc">  18757.85140923 </i>
    <i name="pawaedc"> -18650.93725008 </i>
    <i name="eentropy">     -0.03455802 </i>
    <i name="bandstr">   -770.47569654 </i>
    <i name="atom">  18000.17425575 </i>
    <i name="e_fr_energy">    -35.18336971 </i>
    <i name="e_wo_entrp">    -35.14881169 </i>
    <i name="e_0_energy">    -35.16609070 </i>
   </energy>
  </scstep>
  <structure>
   <crystal>
    <varray name="basis" >
     <v>       5.61089231       0.00000000       0.00000000 </v>
     <v>       2.80544615       4.85917528       0.00000000 </v>
     <v>       0.00000000       0.00000000      30.87191158 </v>
    </varray>
    <i name="volume">    841.70134257 </i>
    <varray name="rec_basis" >
     <v>       0.17822477      -0.10289812       0.00000000 </v>
     <v>       0.00000000       0.20579624       0.00000000 </v>
     <v>       0.00000000       0.00000000       0.03239190 </v>
    </varray>
   </crystal>
   <varray name="positions" >
    <v>       0.00000000       0.00000000       0.38870285 </v>
    <v>       0.50000000       0.00000000       0.38870285 </v>
    <v>       0.00000000       0.50000000       0.38870285 </v>
    <v>       0.50000000       0.50000000       0.38870285 </v>
    <v>       0.16666667       0.16666667       0.46290095 </v>
    <v>       0.66666667       0.16666667       0.46290095 </v>
    <v>       0.16666667       0.66666667       0.46290095 </v>
    <v>       0.66666667       0.66666667       0.46290095 </v>
    <v>       0.83333333       0.33333333       0.53709905 </v>
    <v>       0.33333333       0.33333333       0.53709905 </v>
    <v>       0.83333333       0.83333333       0.53709905 </v>
    <v>       0.33333333       0.83333333       0.53709905 </v>
    <v>       0.00000000       0.00000000       0.61129715 </v>
    <v>       0.50000000       0.00000000       0.61129715 </v>
    <v>       0.00000000       0.50000000       0.61129715 </v>
    <v>       0.50000000       0.50000000       0.61129715 </v>
   </varray>
  </structure>
  <varray name="forces" >
   <v>       0.11655324       0.05820634       0.20841471 </v>
   <v>      -0.18754236       0.10865712      -0.59971446 </v>
   <v>       0.00627371      -0.21205246      -0.59512390 </v>
   <v>      -0.00761198       0.00307184      -0.89812301 </v>
   <v>      -0.21587686       0.00319625       0.15595770 </v>
   <v>       0.36344234       0.00718693       0.12823080 </v>
   <v>       0.00224569       0.20344939      -0.18299695 </v>
   <v>      -0.00070868      -0.21603837       0.42930380 </v>
   <v>       0.11070583      -0.18536775      -0.15596361 </v>
   <v>      -0.18673784      -0.10863169      -0.42930224 </v>
   <v>       0.17506305       0.10366439       0.18299246 </v>
   <v>      -0.17549599       0.31834277      -0.12822930 </v>
   <v>      -0.00787068       0.13004359      -0.20842247 </v>
   <v>       0.00646719      -0.00505398       0.89812732 </v>
   <v>      -0.18678014      -0.10059071       0.59512878 </v>
   <v>       0.18787349      -0.10808366       0.59972037 </v>
  </varray>
  <varray name="stress" >
   <v>      23.17213523      -0.01981075      -0.02011236 </v>
   <v>      -0.01981102      23.14495175       0.01166416 </v>
   <v>      -0.02011236       0.01166439      21.39869453 </v>
  </varray>
  <energy>
   <i name="e_fr_energy">    -35.18336971 </i>
   <i name="e_wo_entrp">    -35.14881169 </i>
   <i name="e_0_energy">    -35.16609070 </i>
  </energy>
  <time name="totalsc">   49.45   49.56</time>
 </calculation>
 <calculation>
  <scstep>
   <time name="dav">    1.35    1.35</time>
   <time name="total">    1.51    1.51</time>
   <energy>
    <i name="alphaZ">    249.63246818 </i>
    <i name="ewald"> 117856.04248654 </i>
    <i name="hartreedc">-135516.10158552 </i>
    <i name="XCdc">     37.56921327 </i>
    <i name="pawpsdc">  18757.85389809 </i>
    <i name="pawaedc"> -18650.93966560 </i>
    <i name="eentropy">     -0.03368456 </i>
    <i name="bandstr">   -769.43302621 </i>
    <i name="atom">  18000.17425575 </i>
    <i name="e_fr_energy">    -35.23564007 </i>
    <i name="e_wo_entrp">    -35.20195550 </i>
    <i name="e_0_energy">    -35.21879778 </i>
   </energy>
  </scstep>
  <scstep>
   <time name="dav">    1.95    1.95</time>
   <time name="total">    2.11    2.11</time>
   <energy>
    <i name="e_fr_energy">    -35.27228948 </i>
    <i name="e_wo_entrp">    -35.23925738 </i>
    <i name="e_0_energy">    -35.25577343 </i>
   </energy>
  </scstep>
  <scstep>
   <time name="dav">    1.76    1.77</time>
   <time name="total">    1.92    1.93</time>
   <energy>
    <i name="e_fr_energy">    -35.26930329 </i>
    <i name="e_wo_entrp">    -35.23576676 </i>
    <i name="e_0_energy">    -35.25253502 </i>
   </energy>
  </scstep>
  <scstep>
   <time name="dav">    1.94    1.95</time>
   <time name="total">    2.10    2.10</time>
   <energy>
    <i name="e_fr_energy">    -35.26953442 </i>
    <i name="e_wo_entrp">    -35.23582067 </i>
    <i name="e_0_energy">    -35.25267755 </i>
   </energy>
  </scstep>
  <scstep>
   <time name="dav">    1.99    1.99</time>
   <time name="total">    2.15    2.16</time>
   <energy>
    <i name="e_fr_energy">    -35.26907007 </i>
    <i name="e_wo_entrp">    -35.23532002 </i>
    <i name="e_0_energy">    -35.25219504 </i>
   </energy>
  </scstep>
  <scstep>
   <time name="dav">    2.14    2.15</time>
   <time name="total">    2.30    2.31</time>
   <energy>
    <i name="e_fr_energy">    -35.26867963 </i>
    <i name="e_wo_entrp">    -35.23488963 </i>
    <i name="e_0_energy">    -35.25178463 </i>
   </energy>
  </scstep>
  <scstep>
   <time name="dav">    1.85    1.86</time>
   <time name="total">    2.01    2.02</time>
   <energy>
    <i name="e_fr_energy">    -35.26858371 </i>
    <i name="e_wo_entrp">    -35.23481310 </i>
    <i name="e_0_energy">    -35.25169840 </i>
   </energy>
  </scstep>
  <scstep>
   <time name="dav">    1.84    1.84</time>
   <time name="total">    2.00    2.00</time>
   <energy>
    <i name="e_fr_energy">    -35.26856699 </i>
    <i name="e_wo_entrp">    -35.23481477 </i>
    <i name="e_0_energy">    -35.25169088 </i>
   </energy>
  </scstep>
  <scstep>
   <time name="dav">    1.81    1.81</time>
   <time name="total">    1.96    1.97</time>
   <energy>
    <i name="e_fr_energy">    -35.26855915 </i>
    <i name="e_wo_entrp">    -35.23483901 </i>
    <i name="e_0_energy">    -35.25169908 </i>
   </energy>
  </scstep>
  <scstep>
   <time name="dav">    1.20    1.20</time>
   <time name="total">    1.36    1.36</time>
   <energy>
    <i name="e_fr_energy">    -35.26855735 </i>
    <i name="e_wo_entrp">    -35.23483732 </i>
    <i name="e_0_energy">    -35.25169734 </i>
   </energy>
  </scstep>
  <scstep>
   <time name="dav">    1.68    1.68</time>
   <time name="total">    1.84    1.84</time>
   <energy>
    <i name="e_fr_energy">    -35.26855871 </i>
    <i name="e_wo_entrp">    -35.23484590 </i>
    <i name="e_0_energy">    -35.25170230 </i>
   </energy>
  </scstep>
  <scstep>
   <time name="dav">    0.99    1.00</time>
   <time name="total">    1.02    1.02</time>
   <energy>
    <i name="alphaZ">    249.63246818 </i>
    <i name="ewald"> 117856.04248654 </i>
    <i name="hartreedc">-135516.68992497 </i>
    <i name="XCdc">     37.58153656 </i>
    <i name="pawpsdc">  18737.23588311 </i>
    <i name="pawaedc"> -18630.04814528 </i>
    <i name="eentropy">     -0.03371666 </i>
    <i name="bandstr">   -769.16340167 </i>
    <i name="atom">  18000.17425575 </i>
    <i name="e_fr_energy">    -35.26855844 </i>
    <i name="e_wo_entrp">    -35.23484179 </i>
    <i name="e_0_energy">    -35.25170012 </i>
   </energy>
  </scstep>
  <structure>
   <crystal>
    <varray name="basis" >
     <v>       5.61089231       0.00000000       0.00000000 </v>
     <v>       2.80544615       4.85917528       0.00000000 </v>
     <v>       0.00000000       0.00000000      30.87191158 </v>
    </varray>
    <i name="volume">    841.70134257 </i>
    <varray name="rec_basis" >
     <v>       0.17822477      -0.10289812       0.00000000 </v>
     <v>       0.00000000       0.20579624       0.00000000 </v>
     <v>       0.00000000       0.00000000       0.03239190 </v>
    </varray>
   </crystal>
   <varray name="positions" >
    <v>       0.00000000       0.00000000       0.38870285 </v>
    <v>       0.50000000       0.00000000       0.38870285 </v>
    <v>       0.00000000       0.50000000       0.38870285 </v>
    <v>       0.50000000       0.50000000       0.38870285 </v>
    <v>       0.16666667       0.16666667       0.46290095 </v>
    <v>       0.66666667       0.16666667       0.46290095 </v>
    <v>       0.16666667       0.66666667       0.46290095 </v>
    <v>       0.66666667       0.66666667       0.46290095 </v>
    <v>       0.83520537       0.33149297       0.53685533 </v>
    <v>       0.33226701       0.33225482       0.53642819 </v>
    <v>       0.83432393       0.83436253       0.53738501 </v>
    <v>       0.33024413       0.83649389       0.53689867 </v>
    <v>       0.99928678       0.00129109       0.61097145 </v>
    <v>       0.50008069       0.99994982       0.61270063 </v>
    <v>       0.99889340       0.49900132       0.61222714 </v>
    <v>       0.50215188       0.49892693       0.61223432 </v>
   </varray>
  </structure>
  <varray name="forces" >
   <v>       0.11483052       0.05621926       0.21628261 </v>
   <v>      -0.18630900       0.10650465      -0.59517236 </v>
   <v>       0.00611115      -0.21061052      -0.58966131 </v>
   <v>      -0.00775338       0.00308542      -0.89251125 </v>
   <v>      -0.22411580       0.00323674       0.11669304 </v>
   <v>       0.37594538      -0.01130343       0.10171746 </v>
   <v>      -0.00833132       0.21943675      -0.21222041 </v>
   <v>       0.01018440      -0.20551766       0.46416969 </v>
   <v>       0.06125235      -0.08310349      -0.10779956 </v>
   <v>      -0.11464306      -0.04475218      -0.11423642 </v>
   <v>       0.03039532       0.05683202       0.24463238 </v>
   <v>      -0.04815482       0.15836187       0.02221866 </v>
   <v>      -0.00182869       0.09000115      -0.16058522 </v>
   <v>      -0.00327632       0.01174714       0.67725910 </v>
   <v>      -0.05322664      -0.08002945       0.43798055 </v>
   <v>       0.04891992      -0.07010828       0.39123304 </v>
  </varray>
  <varray name="stress" >
   <v>      22.63911890      -0.04571853      -0.07082119 </v>
   <v>      -0.04571875      22.52959902       0.08883957 </v>
   <v>      -0.07082115       0.08883944      19.52516694 </v>
  </varray>
  <energy>
   <i name="e_fr_energy">    -35.26855844 </i>
   <i name="e_wo_entrp">    -35.23484179 </i>
   <i name="e_0_energy">    -35.25170012 </i>
  </energy>
  <time name="totalsc">   24.74   24.81</time>
 </calculation>
 <calculation>
  <scstep>
   <time name="dav">    1.35    1.36</time>
   <time name="total">    1.51    1.51</time>
   <energy>
    <i name="alphaZ">    249.63246818 </i>
    <i name="ewald"> 117360.80658146 </i>
    <i name="hartreedc">-135022.85590194 </i>
    <i name="XCdc">     37.36665308 </i>
    <i name="pawpsdc">  18737.24329742 </i>
    <i name="pawaedc"> -18630.05841439 </i>
    <i name="eentropy">     -0.03278741 </i>
    <i name="bandstr">   -767.48424795 </i>
    <i name="atom">  18000.17425575 </i>
    <i name="e_fr_energy">    -35.20809580 </i>
    <i name="e_wo_entrp">    -35.17530839 </i>
    <i name="e_0_energy">    -35.19170209 </i>
   </energy>
  </scstep>
  <scstep>
   <time name="dav">    1.95    1.95</time>
   <time name="total">    2.11    2.11</time>
   <energy>
    <i name="e_fr_energy">    -35.34979513 </i>
    <i name="e_wo_entrp">    -35.31838873 </i>
    <i name="e_0_energy">    -35.33409193 </i>
   </energy>
  </scstep>
  <scstep>
   <time name="dav">    1.79    1.80</time>
   <time name="total">    1.95    1.95</time>
   <energy>
    <i name="e_fr_energy">    -35.33842805 </i>
    <i name="e_wo_entrp">    -35.30604591 </i>
    <i name="e_0_energy">    -35.32223698 </i>
   </energy>
  </scstep>
  <scstep>
   <time name="dav">    1.93    1.94</time>
   <time name="total">    2.09    2.10</time>
   <energy>
    <i name="e_fr_energy">    -35.33798806 </i>
    <i name="e_wo_entrp">    -35.30535152 </i>
    <i name="e_0_energy">    -35.32166979 </i>
   </energy>
  </scstep>
  <scstep>
   <time name="dav">    2.07    2.07</time>
   <time name="total">    2.23    2.23</time>
   <energy>
    <i name="e_fr_energy">    -35.33719509 </i>
    <i name="e_wo_entrp">    -35.30441831 </i>
    <i name="e_0_energy">    -35.32080670 </i>
   </energy>
  </scstep>
  <scstep>
   <time name="dav">    2.04    2.04</time>
   <time name="total">    2.20    2.20</time>
   <energy>
    <i name="e_fr_energy">    -35.33604102 </i>
    <i name="e_wo_entrp">    -35.30314937 </i>
    <i name="e_0_energy">    -35.31959519 </i>
   </energy>
  </scstep>
  <scstep>
   <time name="dav">    1.89    1.89</time>
   <time name="total">    2.04    2.05</time>
   <energy>
    <i name="e_fr_energy">    -35.33572794 </i>
    <i name="e_wo_entrp">    -35.30278205 </i>
    <i name="e_0_energy">    -35.31925499 </i>
   </energy>
  </scstep>
  <scstep>
   <time name="dav">    1.80    1.80</time>
   <time name="total">    1.96    1.96</time>
   <energy>
    <i name="e_fr_energy">    -35.33573532 </i>
    <i name="e_wo_entrp">    -35.30278974 </i>
    <i name="e_0_energy">    -35.31926253 </i>
   </energy>
  </scstep>
  <scstep>
   <time name="dav">    1.78    1.79</time>
   <time name="total">    1.94    1.94</time>
   <energy>
    <i name="e_fr_energy">    -35.33569191 </i>
    <i name="e_wo_entrp">    -35.30281963 </i>
    <i name="e_0_energy">    -35.31925577 </i>
   </energy>
  </scstep>
  <scstep>
   <time name="dav">    1.83    1.83</time>
   <time name="total">    1.99    1.99</time>
   <energy>
    <i name="e_fr_energy">    -35.33568354 </i>
    <i name="e_wo_entrp">    -35.30283015 </i>
    <i name="e_0_energy">    -35.31925684 </i>
   </energy>
  </scstep>
  <scstep>
   <time name="dav">    1.49    1.49</time>
   <time name="total">    1.65    1.65</time>
   <energy>
    <i name="e_fr_energy">    -35.33568693 </i>
    <i name="e_wo_entrp">    -35.30284051 </i>
    <i name="e_0_energy">    -35.31926372 </i>
   </energy>
  </scstep>
  <scstep>
   <time name="dav">    1.13    1.13</time>
   <time name="total">    1.15    1.15</time>
   <energy>
    <i name="alphaZ">    249.63246818 </i>
    <i name="ewald"> 117360.80658146 </i>
    <i name="hartreedc">-135024.01060456 </i>
    <i name="XCdc">     37.38605863 </i>
    <i name="pawpsdc">  18710.02931510 </i>
    <i name="pawaedc"> -18602.46864797 </i>
    <i name="eentropy">     -0.03285093 </i>
    <i name="bandstr">   -766.85226286 </i>
    <i name="atom">  18000.17425575 </i>
    <i name="e_fr_energy">    -35.33568719 </i>
    <i name="e_wo_entrp">    -35.30283626 </i>
    <i name="e_0_energy">    -35.31926173 </i>
   </energy>
  </scstep>
  <structure>
   <crystal>
    <varray name="basis" >
     <v>       5.61089231       0.00000000       0.00000000 </v>
     <v>       2.80544615       4.85917528       0.00000000 </v>
     <v>       0.00000000       0.00000000      30.87191158 </v>
    </varray>
    <i name="volume">    841.70134257 </i>
    <varray name="rec_basis" >
     <v>       0.17822477      -0.10289812       0.00000000 </v>
     <v>       0.00000000       0.20579624       0.00000000 </v>
     <v>       0.00000000       0.00000000       0.03239190 </v>
    </varray>
   </crystal>
   <varray name="positions" >
    <v>       0.00000000       0.00000000       0.38870285 </v>
    <v>       0.50000000       0.00000000       0.38870285 </v>
    <v>       0.00000000       0.50000000       0.38870285 </v>
    <v>       0.50000000       0.50000000       0.38870285 </v>
    <v>       0.16666667       0.16666667       0.46290095 </v>
    <v>       0.66666667       0.16666667       0.46290095 </v>
    <v>       0.16666667       0.66666667       0.46290095 </v>
    <v>       0.66666667       0.66666667       0.46290095 </v>
    <v>       0.83855188       0.32820308       0.53641965 </v>
    <v>       0.33036081       0.33032683       0.53522894 </v>
    <v>       0.83609477       0.83620236       0.53789619 </v>
    <v>       0.32472177       0.84214382       0.53654046 </v>
    <v>       0.99801180       0.00359910       0.61038923 </v>
    <v>       0.50022494       0.99986013       0.61520954 </v>
    <v>       0.99691520       0.49721604       0.61388963 </v>
    <v>       0.50599866       0.49700867       0.61390963 </v>
   </varray>
  </structure>
  <varray name="forces" >
   <v>       0.11259312       0.05432217       0.22793388 </v>
   <v>      -0.18298826       0.10375364      -0.58994463 </v>
   <v>       0.00623004      -0.20617142      -0.58202131 </v>
   <v>      -0.00658048       0.00475632      -0.88464479 </v>
   <v>      -0.24251765       0.00295123       0.03255896 </v>
   <v>       0.40288214      -0.04408397       0.04685227 </v>
   <v>      -0.02522218       0.25352665      -0.27167704 </v>
   <v>       0.02806189      -0.18634057       0.51963894 </v>
   <v>      -0.02448410       0.09480818      -0.03568001 </v>
   <v>       0.00497868       0.07479430       0.34476491 </v>
   <v>      -0.22040731      -0.02857358       0.33309300 </v>
   <v>       0.15480342      -0.12176559       0.25343002 </v>
   <v>       0.01261722       0.01784326      -0.06385134 </v>
   <v>      -0.01319391       0.02994571       0.33929495 </v>
   <v>       0.16180760      -0.03968879       0.21643876 </v>
   <v>      -0.16858023      -0.01007754       0.11381343 </v>
  </varray>
  <varray name="stress" >
   <v>      22.14350270       0.00822074      -0.14827862 </v>
   <v>       0.00822056      21.78486768       0.23090931 </v>
   <v>      -0.14827830       0.23090906      16.79880980 </v>
  </varray>
  <energy>
   <i name="e_fr_energy">    -35.33568719 </i>
   <i name="e_wo_entrp">    -35.30283626 </i>
   <i name="e_0_energy">    -35.31926173 </i>
  </energy>
  <time name="totalsc">   25.28   25.34</time>
 </calculation>
 <calculation>
  <scstep>
   <time name="dav">    1.35    1.36</time>
   <time name="total">    1.51    1.51</time>
   <energy>
    <i name="alphaZ">    249.63246818 </i>
    <i name="ewald"> 117274.54788297 </i>
    <i name="hartreedc">-134937.95766454 </i>
    <i name="XCdc">     37.35307525 </i>
    <i name="pawpsdc">  18710.02542033 </i>
    <i name="pawaedc"> -18602.46842637 </i>
    <i name="eentropy">     -0.03280354 </i>
    <i name="bandstr">   -766.60890906 </i>
    <i name="atom">  18000.17425575 </i>
    <i name="e_fr_energy">    -35.33470103 </i>
    <i name="e_wo_entrp">    -35.30189748 </i>
    <i name="e_0_energy">    -35.31829926 </i>
   </energy>
  </scstep>
  <scstep>
   <time name="dav">    1.91    1.92</time>
   <time name="total">    2.07    2.07</time>
   <energy>
    <i name="e_fr_energy">    -35.33762281 </i>
    <i name="e_wo_entrp">    -35.30490278 </i>
    <i name="e_0_energy">    -35.32126280 </i>
   </energy>
  </scstep>
  <scstep>
   <time name="dav">    1.77    1.77</time>
   <time name="total">    1.92    1.93</time>
   <energy>
    <i name="e_fr_energy">    -35.33754000 </i>
    <i name="e_wo_entrp">    -35.30473752 </i>
    <i name="e_0_energy">    -35.32113876 </i>
   </energy>
  </scstep>
  <scstep>
   <time name="dav">    1.86    1.87</time>
   <time name="total">    2.02    2.02</time>
   <energy>
    <i name="e_fr_energy">    -35.33750507 </i>
    <i name="e_wo_entrp">    -35.30469361 </i>
    <i name="e_0_energy">    -35.32109934 </i>
   </energy>
  </scstep>
  <scstep>
   <time name="dav">    2.19    2.19</time>
   <time name="total">    2.34    2.35</time>
   <energy>
    <i name="e_fr_energy">    -35.33750958 </i>
    <i name="e_wo_entrp">    -35.30470244 </i>
    <i name="e_0_energy">    -35.32110601 </i>
   </energy>
  </scstep>
  <scstep>
   <time name="dav">    2.04    2.04</time>
   <time name="total">    2.19    2.20</time>
   <energy>
    <i name="e_fr_energy">    -35.33749620 </i>
    <i name="e_wo_entrp">    -35.30467716 </i>
    <i name="e_0_energy">    -35.32108668 </i>
   </energy>
  </scstep>
  <scstep>
   <time name="dav">    1.39    1.39</time>
   <time name="total">    1.55    1.55</time>
   <energy>
    <i name="e_fr_energy">    -35.33748954 </i>
    <i name="e_wo_entrp">    -35.30466282 </i>
    <i name="e_0_energy">    -35.32107618 </i>
   </energy>
  </scstep>
  <scstep>
   <time name="dav">    1.35    1.35</time>
   <time name="total">    1.38    1.38</time>
   <energy>
    <i name="alphaZ">    249.63246818 </i>
    <i name="ewald"> 117274.54788297 </i>
    <i name="hartreedc">-134938.26197538 </i>
    <i name="XCdc">     37.35745497 </i>
    <i name="pawpsdc">  18706.43189857 </i>
    <i name="pawaedc"> -18598.82558411 </i>
    <i name="eentropy">     -0.03282216 </i>
    <i name="bandstr">   -766.36106795 </i>
    <i name="atom">  18000.17425575 </i>
    <i name="e_fr_energy">    -35.33748914 </i>
    <i name="e_wo_entrp">    -35.30466698 </i>
    <i name="e_0_energy">    -35.32107806 </i>
   </energy>
  </scstep>
  <structure>
   <crystal>
    <varray name="basis" >
     <v>       5.61089231       0.00000000       0.00000000 </v>
     <v>       2.80544615       4.85917528       0.00000000 </v>
     <v>       0.00000000       0.00000000      30.87191158 </v>
    </varray>
    <i name="volume">    841.70134257 </i>
    <varray name="rec_basis" >
     <v>       0.17822477      -0.10289812       0.00000000 </v>
     <v>       0.00000000       0.20579624       0.00000000 </v>
     <v>       0.00000000       0.00000000       0.03239190 </v>
    </varray>
   </crystal>
   <varray name="positions" >
    <v>       0.00000000       0.00000000       0.38870285 </v>
    <v>       0.50000000       0.00000000       0.38870285 </v>
    <v>       0.00000000       0.50000000       0.38870285 </v>
    <v>       0.50000000       0.50000000       0.38870285 </v>
    <v>       0.16666667       0.16666667       0.46290095 </v>
    <v>       0.66666667       0.16666667       0.46290095 </v>
    <v>       0.16666667       0.66666667       0.46290095 </v>
    <v>       0.66666667       0.66666667       0.46290095 </v>
    <v>       0.83913592       0.32762892       0.53634361 </v>
    <v>       0.33002814       0.32999036       0.53501965 </v>
    <v>       0.83640382       0.83652345       0.53798541 </v>
    <v>       0.32375799       0.84312985       0.53647795 </v>
    <v>       0.99778929       0.00400190       0.61028762 </v>
    <v>       0.50025012       0.99984447       0.61564740 </v>
    <v>       0.99656996       0.49690447       0.61417977 </v>
    <v>       0.50667000       0.49667389       0.61420201 </v>
   </varray>
  </structure>
  <varray name="forces" >
   <v>       0.11188066       0.05443518       0.23020452 </v>
   <v>      -0.18286909       0.10373351      -0.58875738 </v>
   <v>       0.00586150      -0.20509529      -0.58070860 </v>
   <v>      -0.00666408       0.00548440      -0.88339304 </v>
   <v>      -0.24679888       0.00308247       0.01635415 </v>
   <v>       0.40795164      -0.04944940       0.03672425 </v>
   <v>      -0.02828021       0.26050098      -0.28266722 </v>
   <v>       0.03046248      -0.18291334       0.52874545 </v>
   <v>      -0.04015819       0.12648638      -0.02390458 </v>
   <v>       0.01956174       0.09225390       0.40771197 </v>
   <v>      -0.25882985      -0.04063620       0.34064512 </v>
   <v>       0.19475646      -0.16983256       0.28243348 </v>
   <v>       0.01516223       0.00531269      -0.04731305 </v>
   <v>      -0.01451861       0.03215868       0.31089969 </v>
   <v>       0.19277743      -0.03469404       0.18104907 </v>
   <v>      -0.20029524      -0.00082736       0.07197617 </v>
  </varray>
  <varray name="stress" >
   <v>      21.87292646       0.01347985      -0.15224405 </v>
   <v>       0.01347951      21.49052156       0.25475755 </v>
   <v>      -0.15224426       0.25475759      16.15403797 </v>
  </varray>
  <energy>
   <i name="e_fr_energy">    -35.33748914 </i>
   <i name="e_wo_entrp">    -35.30466698 </i>
   <i name="e_0_energy">    -35.32107806 </i>
  </energy>
  <time name="totalsc">   17.45   17.50</time>
 </calculation>
 <calculation>
  <scstep>
   <time name="dav">    1.35    1.36</time>
   <time name="total">    1.51    1.51</time>
   <energy>
    <i name="alphaZ">    249.63246818 </i>
    <i name="ewald"> 116948.68135697 </i>
    <i name="hartreedc">-134613.13795125 </i>
    <i name="XCdc">     37.23281070 </i>
    <i name="pawpsdc">  18706.39772605 </i>
    <i name="pawaedc"> -18598.78905331 </i>
    <i name="eentropy">     -0.03267028 </i>
    <i name="bandstr">   -765.51490248 </i>
    <i name="atom">  18000.17425575 </i>
    <i name="e_fr_energy">    -35.35595967 </i>
    <i name="e_wo_entrp">    -35.32328939 </i>
    <i name="e_0_energy">    -35.33962453 </i>
   </energy>
  </scstep>
  <scstep>
   <time name="dav">    1.94    1.95</time>
   <time name="total">    2.10    2.11</time>
   <energy>
    <i name="e_fr_energy">    -35.38475337 </i>
    <i name="e_wo_entrp">    -35.35253098 </i>
    <i name="e_0_energy">    -35.36864218 </i>
   </energy>
  </scstep>
  <scstep>
   <time name="dav">    1.77    1.77</time>
   <time name="total">    1.92    1.93</time>
   <energy>
    <i name="e_fr_energy">    -35.38289845 </i>
    <i name="e_wo_entrp">    -35.35037354 </i>
    <i name="e_0_energy">    -35.36663599 </i>
   </energy>
  </scstep>
  <scstep>
   <time name="dav">    1.90    1.90</time>
   <time name="total">    2.06    2.06</time>
   <energy>
    <i name="e_fr_energy">    -35.38235314 </i>
    <i name="e_wo_entrp">    -35.34959939 </i>
    <i name="e_0_energy">    -35.36597627 </i>
   </energy>
  </scstep>
  <scstep>
   <time name="dav">    1.80    1.80</time>
   <time name="total">    1.96    1.96</time>
   <energy>
    <i name="e_fr_energy">    -35.38219006 </i>
    <i name="e_wo_entrp">    -35.34961538 </i>
    <i name="e_0_energy">    -35.36590272 </i>
   </energy>
  </scstep>
  <scstep>
   <time name="dav">    2.04    2.04</time>
   <time name="total">    2.20    2.20</time>
   <energy>
    <i name="e_fr_energy">    -35.38212875 </i>
    <i name="e_wo_entrp">    -35.34936917 </i>
    <i name="e_0_energy">    -35.36574896 </i>
   </energy>
  </scstep>
  <scstep>
   <time name="dav">    1.82    1.82</time>
   <time name="total">    1.97    1.98</time>
   <energy>
    <i name="e_fr_energy">    -35.38213515 </i>
    <i name="e_wo_entrp">    -35.34935582 </i>
    <i name="e_0_energy">    -35.36574548 </i>
   </energy>
  </scstep>
  <scstep>
   <time name="dav">    1.88    1.89</time>
   <time name="total">    2.04    2.04</time>
   <energy>
    <i name="e_fr_energy">    -35.38210709 </i>
    <i name="e_wo_entrp">    -35.34933756 </i>
    <i name="e_0_energy">    -35.36572232 </i>
   </energy>
  </scstep>
  <scstep>
   <time name="dav">    1.87    1.87</time>
   <time name="total">    2.03    2.03</time>
   <energy>
    <i name="e_fr_energy">    -35.38210471 </i>
    <i name="e_wo_entrp">    -35.34935679 </i>
    <i name="e_0_energy">    -35.36573075 </i>
   </energy>
  </scstep>
  <scstep>
   <time name="dav">    1.15    1.15</time>
   <time name="total">    1.18    1.18</time>
   <energy>
    <i name="alphaZ">    249.63246818 </i>
    <i name="ewald"> 116948.68135697 </i>
    <i name="hartreedc">-134614.04060414 </i>
    <i name="XCdc">     37.24521437 </i>
    <i name="pawpsdc">  18689.27603384 </i>
    <i name="pawaedc"> -18581.42353180 </i>
    <i name="eentropy">     -0.03273100 </i>
    <i name="bandstr">   -764.89456622 </i>
    <i name="atom">  18000.17425575 </i>
    <i name="e_fr_energy">    -35.38210404 </i>
    <i name="e_wo_entrp">    -35.34937304 </i>
    <i name="e_0_energy">    -35.36573854 </i>
   </energy>
  </scstep>
  <structure>
   <crystal>
    <varray name="basis" >
     <v>       5.61089231       0.00000000       0.00000000 </v>
     <v>       2.80544615       4.85917528       0.00000000 </v>
     <v>       0.00000000       0.00000000      30.87191158 </v>
    </varray>
    <i name="volume">    841.70134257 </i>
    <varray name="rec_basis" >
     <v>       0.17822477      -0.10289812       0.00000000 </v>
     <v>       0.00000000       0.20579624       0.00000000 </v>
     <v>       0.00000000       0.00000000       0.03239190 </v>
    </varray>
   </crystal>
   <varray name="positions" >
    <v>       0.00000000       0.00000000       0.38870285 </v>
    <v>       0.50000000       0.00000000       0.38870285 </v>
    <v>       0.00000000       0.50000000       0.38870285 </v>
    <v>       0.50000000       0.50000000       0.38870285 </v>
    <v>       0.16666667       0.16666667       0.46290095 </v>
    <v>       0.66666667       0.16666667       0.46290095 </v>
    <v>       0.16666667       0.66666667       0.46290095 </v>
    <v>       0.66666667       0.66666667       0.46290095 </v>
    <v>       0.83859524       0.32858511       0.53618106 </v>
    <v>       0.32913758       0.33080628       0.53562288 </v>
    <v>       0.83397540       0.83641303       0.53886974 </v>
    <v>       0.32594473       0.84215579       0.53701460 </v>
    <v>       0.99761649       0.00465691       0.61003629 </v>
    <v>       0.49988245       0.00027527       0.61696786 </v>
    <v>       0.99867081       0.49596665       0.61499936 </v>
    <v>       0.50519740       0.49618007       0.61478280 </v>
   </varray>
  </structure>
  <varray name="forces" >
   <v>       0.11115709       0.05173503       0.23388524 </v>
   <v>      -0.18191005       0.10367798      -0.58537248 </v>
   <v>       0.00801876      -0.20440379      -0.57938194 </v>
   <v>      -0.00831423       0.00515561      -0.88259045 </v>
   <v>      -0.23471099      -0.00348152       0.05370464 </v>
   <v>       0.38098866      -0.06775337       0.11660125 </v>
   <v>      -0.03830719       0.26960573      -0.16761489 </v>
   <v>       0.03837961      -0.16252841       0.56279753 </v>
   <v>      -0.03726826       0.07862054      -0.00253005 </v>
   <v>       0.03475112       0.09441644       0.32975020 </v>
   <v>      -0.15096633      -0.03762846       0.20143228 </v>
   <v>       0.08195341      -0.14254792       0.21361053 </v>
   <v>       0.01690623       0.01345755      -0.00223234 </v>
   <v>      -0.01359801      -0.03535607       0.27611657 </v>
   <v>       0.07893413       0.00597956       0.17082442 </v>
   <v>      -0.08601395       0.03105109       0.06099950 </v>
  </varray>
  <varray name="stress" >
   <v>      21.20656221       0.04069880      -0.06469465 </v>
   <v>       0.04069868      20.97487912       0.29565031 </v>
   <v>      -0.06469435       0.29565017      14.95126924 </v>
  </varray>
  <energy>
   <i name="e_fr_energy">    -35.38210404 </i>
   <i name="e_wo_entrp">    -35.34937304 </i>
   <i name="e_0_energy">    -35.36573854 </i>
  </energy>
  <time name="totalsc">   21.44   21.49</time>
 </calculation>
 <calculation>
  <scstep>
   <time name="dav">    1.35    1.36</time>
   <time name="total">    1.51    1.52</time>
   <energy>
    <i name="alphaZ">    249.63246818 </i>
    <i name="ewald"> 116084.74714201 </i>
    <i name="hartreedc">-133752.07054160 </i>
    <i name="XCdc">     36.94996754 </i>
    <i name="pawpsdc">  18689.27962695 </i>
    <i name="pawaedc"> -18581.42927795 </i>
    <i name="eentropy">     -0.03303502 </i>
    <i name="bandstr">   -762.42092563 </i>
    <i name="atom">  18000.17425575 </i>
    <i name="e_fr_energy">    -35.17031978 </i>
    <i name="e_wo_entrp">    -35.13728476 </i>
    <i name="e_0_energy">    -35.15380227 </i>
   </energy>
  </scstep>
  <scstep>
   <time name="dav">    1.94    1.94</time>
   <time name="total">    2.10    2.10</time>
   <energy>
    <i name="e_fr_energy">    -35.46245132 </i>
    <i name="e_wo_entrp">    -35.43166248 </i>
    <i name="e_0_energy">    -35.44705690 </i>
   </energy>
  </scstep>
  <scstep>
   <time name="dav">    1.79    1.79</time>
   <time name="total">    1.95    1.95</time>
   <energy>
    <i name="e_fr_energy">    -35.43889816 </i>
    <i name="e_wo_entrp">    -35.40640567 </i>
    <i name="e_0_energy">    -35.42265192 </i>
   </energy>
  </scstep>
  <scstep>
   <time name="dav">    1.91    1.91</time>
   <time name="total">    2.07    2.07</time>
   <energy>
    <i name="e_fr_energy">    -35.43618612 </i>
    <i name="e_wo_entrp">    -35.40346508 </i>
    <i name="e_0_energy">    -35.41982560 </i>
   </energy>
  </scstep>
  <scstep>
   <time name="dav">    2.15    2.16</time>
   <time name="total">    2.31    2.31</time>
   <energy>
    <i name="e_fr_energy">    -35.43590290 </i>
    <i name="e_wo_entrp">    -35.40313193 </i>
    <i name="e_0_energy">    -35.41951742 </i>
   </energy>
  </scstep>
  <scstep>
   <time name="dav">    2.17    2.18</time>
   <time name="total">    2.33    2.33</time>
   <energy>
    <i name="e_fr_energy">    -35.43388855 </i>
    <i name="e_wo_entrp">    -35.40096368 </i>
    <i name="e_0_energy">    -35.41742611 </i>
   </energy>
  </scstep>
  <scstep>
   <time name="dav">    1.88    1.89</time>
   <time name="total">    2.04    2.04</time>
   <energy>
    <i name="e_fr_energy">    -35.43305183 </i>
    <i name="e_wo_entrp">    -35.39991312 </i>
    <i name="e_0_energy">    -35.41648248 </i>
   </energy>
  </scstep>
  <scstep>
   <time name="dav">    1.82    1.82</time>
   <time name="total">    1.98    1.98</time>
   <energy>
    <i name="e_fr_energy">    -35.43306219 </i>
    <i name="e_wo_entrp">    -35.39973944 </i>
    <i name="e_0_energy">    -35.41640081 </i>
   </energy>
  </scstep>
  <scstep>
   <time name="dav">    1.80    1.80</time>
   <time name="total">    1.96    1.96</time>
   <energy>
    <i name="e_fr_energy">    -35.43306003 </i>
    <i name="e_wo_entrp">    -35.39978127 </i>
    <i name="e_0_energy">    -35.41642065 </i>
   </energy>
  </scstep>
  <scstep>
   <time name="dav">    1.82    1.82</time>
   <time name="total">    1.98    1.98</time>
   <energy>
    <i name="e_fr_energy">    -35.43303132 </i>
    <i name="e_wo_entrp">    -35.39980482 </i>
    <i name="e_0_energy">    -35.41641807 </i>
   </energy>
  </scstep>
  <scstep>
   <time name="dav">    1.86    1.86</time>
   <time name="total">    2.02    2.02</time>
   <energy>
    <i name="e_fr_energy">    -35.43302900 </i>
    <i name="e_wo_entrp">    -35.39983959 </i>
    <i name="e_0_energy">    -35.41643430 </i>
   </energy>
  </scstep>
  <scstep>
   <time name="dav">    1.23    1.24</time>
   <time name="total">    1.39    1.40</time>
   <energy>
    <i name="e_fr_energy">    -35.43302955 </i>
    <i name="e_wo_entrp">    -35.39984889 </i>
    <i name="e_0_energy">    -35.41643922 </i>
   </energy>
  </scstep>
  <scstep>
   <time name="dav">    1.13    1.13</time>
   <time name="total">    1.15    1.16</time>
   <energy>
    <i name="alphaZ">    249.63246818 </i>
    <i name="ewald"> 116084.74714201 </i>
    <i name="hartreedc">-133753.90694965 </i>
    <i name="XCdc">     36.97276228 </i>
    <i name="pawpsdc">  18650.48261712 </i>
    <i name="pawaedc"> -18542.06626779 </i>
    <i name="eentropy">     -0.03319730 </i>
    <i name="bandstr">   -761.43586070 </i>
    <i name="atom">  18000.17425575 </i>
    <i name="e_fr_energy">    -35.43303009 </i>
    <i name="e_wo_entrp">    -35.39983279 </i>
    <i name="e_0_energy">    -35.41643144 </i>
   </energy>
  </scstep>
  <structure>
   <crystal>
    <varray name="basis" >
     <v>       5.61089231       0.00000000       0.00000000 </v>
     <v>       2.80544615       4.85917528       0.00000000 </v>
     <v>       0.00000000       0.00000000      30.87191158 </v>
    </varray>
    <i name="volume">    841.70134257 </i>
    <varray name="rec_basis" >
     <v>       0.17822477      -0.10289812       0.00000000 </v>
     <v>       0.00000000       0.20579624       0.00000000 </v>
     <v>       0.00000000       0.00000000       0.03239190 </v>
    </varray>
   </crystal>
   <varray name="positions" >
    <v>       0.00000000       0.00000000       0.38870285 </v>
    <v>       0.50000000       0.00000000       0.38870285 </v>
    <v>       0.00000000       0.50000000       0.38870285 </v>
    <v>       0.50000000       0.50000000       0.38870285 </v>
    <v>       0.16666667       0.16666667       0.46290095 </v>
    <v>       0.66666667       0.16666667       0.46290095 </v>
    <v>       0.16666667       0.66666667       0.46290095 </v>
    <v>       0.66666667       0.66666667       0.46290095 </v>
    <v>       0.83716591       0.33111286       0.53575135 </v>
    <v>       0.32678333       0.33296322       0.53721755 </v>
    <v>       0.82755577       0.83612113       0.54120753 </v>
    <v>       0.33172548       0.83958080       0.53843326 </v>
    <v>       0.99715968       0.00638846       0.60937191 </v>
    <v>       0.49891050       0.00141412       0.62045856 </v>
    <v>       0.00422454       0.49348749       0.61716598 </v>
    <v>       0.50130451       0.49487464       0.61631816 </v>
   </varray>
  </structure>
  <varray name="forces" >
   <v>       0.10845078       0.04685124       0.24796207 </v>
   <v>      -0.18016145       0.10602296      -0.57640535 </v>
   <v>       0.01311563      -0.20036170      -0.57106126 </v>
   <v>      -0.01375799       0.00631412      -0.87698422 </v>
   <v>      -0.20820539      -0.01601993       0.14385542 </v>
   <v>       0.31708573      -0.10447198       0.29957073 </v>
   <v>      -0.05497229       0.28518362       0.09159930 </v>
   <v>       0.05338309      -0.11023851       0.64935390 </v>
   <v>      -0.03357238      -0.04497967       0.04578200 </v>
   <v>       0.05202844       0.09181807       0.11472934 </v>
   <v>       0.13211546      -0.01246151      -0.06022329 </v>
   <v>      -0.20349934      -0.10076136       0.03249448 </v>
   <v>       0.02757327       0.05118551       0.12025576 </v>
   <v>      -0.00130908      -0.22754679       0.13390428 </v>
   <v>      -0.20593623       0.12243173       0.15066459 </v>
   <v>       0.19766175       0.10703422       0.05450226 </v>
  </varray>
  <varray name="stress" >
   <v>      19.69564803       0.07379595       0.20059810 </v>
   <v>       0.07379621      19.41095287       0.33134824 </v>
   <v>       0.20059791       0.33134809      11.57329784 </v>
  </varray>
  <energy>
   <i name="e_fr_energy">    -35.43303009 </i>
   <i name="e_wo_entrp">    -35.39983279 </i>
   <i name="e_0_energy">    -35.41643144 </i>
  </energy>
  <time name="totalsc">   27.25   27.31</time>
 </calculation>
 <calculation>
  <scstep>
   <time name="dav">    1.35    1.36</time>
   <time name="total">    1.51    1.51</time>
   <energy>
    <i name="alphaZ">    249.63246818 </i>
    <i name="ewald"> 115662.95841350 </i>
    <i name="hartreedc">-133332.96182046 </i>
    <i name="XCdc">     36.82323938 </i>
    <i name="pawpsdc">  18650.37310914 </i>
    <i name="pawaedc"> -18541.95420373 </i>
    <i name="eentropy">     -0.03380063 </i>
    <i name="bandstr">   -760.42637404 </i>
    <i name="atom">  18000.17425575 </i>
    <i name="e_fr_energy">    -35.41471290 </i>
    <i name="e_wo_entrp">    -35.38091227 </i>
    <i name="e_0_energy">    -35.39781258 </i>
   </energy>
  </scstep>
  <scstep>
   <time name="dav">    1.92    1.92</time>
   <time name="total">    2.07    2.08</time>
   <energy>
    <i name="e_fr_energy">    -35.45713416 </i>
    <i name="e_wo_entrp">    -35.42396408 </i>
    <i name="e_0_energy">    -35.44054912 </i>
   </energy>
  </scstep>
  <scstep>
   <time name="dav">    1.77    1.77</time>
   <time name="total">    1.93    1.93</time>
   <energy>
    <i name="e_fr_energy">    -35.45472325 </i>
    <i name="e_wo_entrp">    -35.42111357 </i>
    <i name="e_0_energy">    -35.43791841 </i>
   </energy>
  </scstep>
  <scstep>
   <time name="dav">    1.88    1.89</time>
   <time name="total">    2.04    2.05</time>
   <energy>
    <i name="e_fr_energy">    -35.45410529 </i>
    <i name="e_wo_entrp">    -35.42022291 </i>
    <i name="e_0_energy">    -35.43716410 </i>
   </energy>
  </scstep>
  <scstep>
   <time name="dav">    1.78    1.78</time>
   <time name="total">    1.94    1.94</time>
   <energy>
    <i name="e_fr_energy">    -35.45389921 </i>
    <i name="e_wo_entrp">    -35.42028359 </i>
    <i name="e_0_energy">    -35.43709140 </i>
   </energy>
  </scstep>
  <scstep>
   <time name="dav">    1.93    1.93</time>
   <time name="total">    2.09    2.09</time>
   <energy>
    <i name="e_fr_energy">    -35.45377488 </i>
    <i name="e_wo_entrp">    -35.41988956 </i>
    <i name="e_0_energy">    -35.43683222 </i>
   </energy>
  </scstep>
  <scstep>
   <time name="dav">    1.79    1.79</time>
   <time name="total">    1.95    1.95</time>
   <energy>
    <i name="e_fr_energy">    -35.45378734 </i>
    <i name="e_wo_entrp">    -35.41988433 </i>
    <i name="e_0_energy">    -35.43683583 </i>
   </energy>
  </scstep>
  <scstep>
   <time name="dav">    1.83    1.83</time>
   <time name="total">    1.99    1.99</time>
   <energy>
    <i name="e_fr_energy">    -35.45378089 </i>
    <i name="e_wo_entrp">    -35.41989077 </i>
    <i name="e_0_energy">    -35.43683583 </i>
   </energy>
  </scstep>
  <scstep>
   <time name="dav">    1.60    1.60</time>
   <time name="total">    1.76    1.76</time>
   <energy>
    <i name="e_fr_energy">    -35.45377513 </i>
    <i name="e_wo_entrp">    -35.41990776 </i>
    <i name="e_0_energy">    -35.43684144 </i>
   </energy>
  </scstep>
  <scstep>
   <time name="dav">    1.40    1.40</time>
   <time name="total">    1.56    1.56</time>
   <energy>
    <i name="e_fr_energy">    -35.45377546 </i>
    <i name="e_wo_entrp">    -35.41993626 </i>
    <i name="e_0_energy">    -35.43685586 </i>
   </energy>
  </scstep>
  <scstep>
   <time name="dav">    1.11    1.12</time>
   <time name="total">    1.14    1.14</time>
   <energy>
    <i name="alphaZ">    249.63246818 </i>
    <i name="ewald"> 115662.95841350 </i>
    <i name="hartreedc">-133333.83480226 </i>
    <i name="XCdc">     36.84188342 </i>
    <i name="pawpsdc">  18631.87970407 </i>
    <i name="pawaedc"> -18523.19406260 </i>
    <i name="eentropy">     -0.03384795 </i>
    <i name="bandstr">   -759.87778784 </i>
    <i name="atom">  18000.17425575 </i>
    <i name="e_fr_energy">    -35.45377572 </i>
    <i name="e_wo_entrp">    -35.41992777 </i>
    <i name="e_0_energy">    -35.43685175 </i>
   </energy>
  </scstep>
  <structure>
   <crystal>
    <varray name="basis" >
     <v>       5.61089231       0.00000000       0.00000000 </v>
     <v>       2.80544615       4.85917528       0.00000000 </v>
     <v>       0.00000000       0.00000000      30.87191158 </v>
    </varray>
    <i name="volume">    841.70134257 </i>
    <varray name="rec_basis" >
     <v>       0.17822477      -0.10289812       0.00000000 </v>
     <v>       0.00000000       0.20579624       0.00000000 </v>
     <v>       0.00000000       0.00000000       0.03239190 </v>
    </varray>
   </crystal>
   <varray name="positions" >
    <v>       0.00000000       0.00000000       0.38870285 </v>
    <v>       0.50000000       0.00000000       0.38870285 </v>
    <v>       0.00000000       0.50000000       0.38870285 </v>
    <v>       0.50000000       0.50000000       0.38870285 </v>
    <v>       0.16666667       0.16666667       0.46290095 </v>
    <v>       0.66666667       0.16666667       0.46290095 </v>
    <v>       0.16666667       0.66666667       0.46290095 </v>
    <v>       0.66666667       0.66666667       0.46290095 </v>
    <v>       0.83661779       0.33086193       0.53578452 </v>
    <v>       0.32609590       0.33555497       0.53805993 </v>
    <v>       0.82833127       0.83576962       0.54166766 </v>
    <v>       0.33065616       0.83667751       0.53894667 </v>
    <v>       0.99699292       0.00798365       0.60959099 </v>
    <v>       0.50106172       0.99683403       0.62190484 </v>
    <v>       0.00064025       0.49542137       0.61829281 </v>
    <v>       0.50273383       0.49681028       0.61693939 </v>
   </varray>
  </structure>
  <varray name="forces" >
   <v>       0.10851319       0.04534935       0.25377237 </v>
   <v>      -0.17965199       0.10660448      -0.57228578 </v>
   <v>       0.01546890      -0.20084096      -0.56714123 </v>
   <v>      -0.01508846       0.00529266      -0.87406142 </v>
   <v>      -0.19161721      -0.01840161       0.18730898 </v>
   <v>       0.28672420      -0.10427915       0.35407259 </v>
   <v>      -0.05908196       0.26738980       0.12776811 </v>
   <v>       0.04939389      -0.09309656       0.69509258 </v>
   <v>      -0.00145136      -0.05129535       0.04438200 </v>
   <v>      -0.00885588      -0.10303854       0.07172031 </v>
   <v>      -0.01059153       0.03657737      -0.07301980 </v>
   <v>      -0.01939828       0.04981190      -0.03040350 </v>
   <v>       0.01487899       0.04284075       0.14324608 </v>
   <v>       0.00255175       0.04474791       0.08233700 </v>
   <v>       0.01182341      -0.00143112       0.09091598 </v>
   <v>      -0.00361765      -0.02623094       0.06629571 </v>
  </varray>
  <varray name="stress" >
   <v>      19.11627419       0.06666000       0.36070445 </v>
   <v>       0.06665983      18.80236106       0.43326898 </v>
   <v>       0.36070465       0.43326901      10.24387724 </v>
  </varray>
  <energy>
   <i name="e_fr_energy">    -35.45377572 </i>
   <i name="e_wo_entrp">    -35.41992777 </i>
   <i name="e_0_energy">    -35.43685175 </i>
  </energy>
  <time name="totalsc">   22.44   22.49</time>
 </calculation>
 <calculation>
  <scstep>
   <time name="dav">    1.36    1.36</time>
   <time name="total">    1.51    1.52</time>
   <energy>
    <i name="alphaZ">    249.63246818 </i>
    <i name="ewald"> 115559.53627086 </i>
    <i name="hartreedc">-133230.60017750 </i>
    <i name="XCdc">     36.80701207 </i>
    <i name="pawpsdc">  18631.90267877 </i>
    <i name="pawaedc"> -18523.21864018 </i>
    <i name="eentropy">     -0.03401758 </i>
    <i name="bandstr">   -759.65233139 </i>
    <i name="atom">  18000.17425575 </i>
    <i name="e_fr_energy">    -35.45248101 </i>
    <i name="e_wo_entrp">    -35.41846343 </i>
    <i name="e_0_energy">    -35.43547222 </i>
   </energy>
  </scstep>
  <scstep>
   <time name="dav">    1.87    1.88</time>
   <time name="total">    2.03    2.04</time>
   <energy>
    <i name="e_fr_energy">    -35.45457489 </i>
    <i name="e_wo_entrp">    -35.42056680 </i>
    <i name="e_0_energy">    -35.43757084 </i>
   </energy>
  </scstep>
  <scstep>
   <time name="dav">    1.79    1.79</time>
   <time name="total">    1.95    1.95</time>
   <energy>
    <i name="e_fr_energy">    -35.45452979 </i>
    <i name="e_wo_entrp">    -35.42052258 </i>
    <i name="e_0_energy">    -35.43752618 </i>
   </energy>
  </scstep>
  <scstep>
   <time name="dav">    1.90    1.90</time>
   <time name="total">    2.05    2.06</time>
   <energy>
    <i name="e_fr_energy">    -35.45451272 </i>
    <i name="e_wo_entrp">    -35.42046652 </i>
    <i name="e_0_energy">    -35.43748962 </i>
   </energy>
  </scstep>
  <scstep>
   <time name="dav">    2.18    2.18</time>
   <time name="total">    2.34    2.34</time>
   <energy>
    <i name="e_fr_energy">    -35.45451224 </i>
    <i name="e_wo_entrp">    -35.42046902 </i>
    <i name="e_0_energy">    -35.43749063 </i>
   </energy>
  </scstep>
  <scstep>
   <time name="dav">    2.05    2.06</time>
   <time name="total">    2.21    2.21</time>
   <energy>
[...]
        <r>  0.0102  0.0015  0.0048  0.0039  0.0030  0.0017  0.0032  0.0008  0.0022 </r>
        <r>  0.0096  0.0023  0.0054  0.0033  0.0025  0.0010  0.0033  0.0009  0.0026 </r>
        <r>  0.0104  0.0012  0.0002  0.0031  0.0029  0.0002  0.0030  0.0003  0.0027 </r>
        <r>  0.0020  0.0092  0.0000  0.0260  0.0063  0.0001  0.0008  0.0001  0.0174 </r>
        <r>  0.0021  0.0085  0.0031  0.0312  0.0069  0.0005  0.0008  0.0002  0.0153 </r>
        <r>  0.0021  0.0120  0.0027  0.0285  0.0048  0.0003  0.0006  0.0002  0.0164 </r>
        <r>  0.0023  0.0086  0.0000  0.0262  0.0063  0.0002  0.0006  0.0001  0.0170 </r>
        <r>  0.0067  0.0059  0.0038  0.0173  0.0050  0.0008  0.0022  0.0005  0.0113 </r>
        <r>  0.0061  0.0070  0.0001  0.0196  0.0056  0.0001  0.0023  0.0002  0.0103 </r>
        <r>  0.0082  0.0070  0.0001  0.0180  0.0053  0.0001  0.0011  0.0001  0.0122 </r>
        <r>  0.0049  0.0068  0.0038  0.0189  0.0050  0.0008  0.0023  0.0005  0.0108 </r>
        <r>  0.0064  0.0008  0.0002  0.0014  0.0017  0.0001  0.0024  0.0001  0.0010 </r>
        <r>  0.0030  0.0005  0.0041  0.0011  0.0014  0.0008  0.0022  0.0003  0.0008 </r>
        <r>  0.0052  0.0008  0.0037  0.0008  0.0013  0.0011  0.0024  0.0005  0.0010 </r>
        <r>  0.0053  0.0006  0.0002  0.0009  0.0013  0.0000  0.0021  0.0002  0.0010 </r>
       </set>
       <set comment="band 95">
        <r>  0.0003  0.0039  0.0002  0.0119  0.0023  0.0010  0.0000  0.0015  0.0068 </r>
        <r>  0.0002  0.0043  0.0002  0.0139  0.0027  0.0002  0.0001  0.0012  0.0068 </r>
        <r>  0.0002  0.0047  0.0002  0.0131  0.0022  0.0007  0.0001  0.0011  0.0075 </r>
        <r>  0.0001  0.0045  0.0009  0.0130  0.0022  0.0002  0.0000  0.0009  0.0065 </r>
        <r>  0.0223  0.0037  0.0001  0.0064  0.0069  0.0000  0.0073  0.0000  0.0053 </r>
        <r>  0.0254  0.0047  0.0013  0.0082  0.0077  0.0004  0.0066  0.0003  0.0053 </r>
        <r>  0.0265  0.0052  0.0009  0.0070  0.0068  0.0006  0.0056  0.0002  0.0059 </r>
        <r>  0.0216  0.0042  0.0000  0.0073  0.0069  0.0000  0.0067  0.0002  0.0052 </r>
        <r>  0.0145  0.0055  0.0000  0.0118  0.0061  0.0000  0.0049  0.0000  0.0077 </r>
        <r>  0.0178  0.0049  0.0016  0.0154  0.0071  0.0005  0.0040  0.0001  0.0083 </r>
        <r>  0.0125  0.0074  0.0008  0.0131  0.0050  0.0006  0.0053  0.0002  0.0085 </r>
        <r>  0.0167  0.0051  0.0000  0.0120  0.0065  0.0000  0.0037  0.0000  0.0081 </r>
        <r>  0.0011  0.0038  0.0000  0.0108  0.0021  0.0003  0.0005  0.0012  0.0053 </r>
        <r>  0.0007  0.0027  0.0013  0.0093  0.0023  0.0005  0.0004  0.0014  0.0050 </r>
        <r>  0.0010  0.0040  0.0009  0.0097  0.0018  0.0010  0.0003  0.0010  0.0055 </r>
        <r>  0.0010  0.0031  0.0000  0.0094  0.0020  0.0003  0.0005  0.0008  0.0055 </r>
       </set>
       <set comment="band 96">
        <r>  0.0038  0.0083  0.0004  0.0227  0.0048  0.0003  0.0006  0.0004  0.0112 </r>
        <r>  0.0036  0.0075  0.0005  0.0260  0.0060  0.0005  0.0007  0.0007  0.0113 </r>
        <r>  0.0037  0.0104  0.0005  0.0236  0.0044  0.0003  0.0007  0.0005  0.0125 </r>
        <r>  0.0036  0.0079  0.0005  0.0227  0.0051  0.0006  0.0005  0.0008  0.0116 </r>
        <r>  0.0090  0.0020  0.0038  0.0006  0.0024  0.0011  0.0025  0.0006  0.0009 </r>
        <r>  0.0109  0.0010  0.0058  0.0014  0.0031  0.0005  0.0016  0.0006  0.0009 </r>
        <r>  0.0102  0.0023  0.0044  0.0002  0.0029  0.0012  0.0021  0.0005  0.0012 </r>
        <r>  0.0109  0.0008  0.0056  0.0005  0.0032  0.0005  0.0011  0.0003  0.0010 </r>
        <r>  0.0100  0.0020  0.0027  0.0005  0.0029  0.0002  0.0027  0.0006  0.0013 </r>
        <r>  0.0149  0.0011  0.0024  0.0014  0.0038  0.0005  0.0016  0.0006  0.0013 </r>
        <r>  0.0134  0.0032  0.0042  0.0009  0.0033  0.0004  0.0031  0.0008  0.0015 </r>
        <r>  0.0123  0.0010  0.0024  0.0008  0.0039  0.0007  0.0023  0.0003  0.0013 </r>
        <r>  0.0022  0.0087  0.0000  0.0236  0.0039  0.0003  0.0002  0.0004  0.0101 </r>
        <r>  0.0010  0.0067  0.0003  0.0236  0.0046  0.0003  0.0003  0.0014  0.0103 </r>
        <r>  0.0015  0.0095  0.0003  0.0233  0.0038  0.0006  0.0004  0.0009  0.0122 </r>
        <r>  0.0012  0.0072  0.0002  0.0224  0.0043  0.0002  0.0002  0.0006  0.0116 </r>
       </set>
       <set comment="band 97">
        <r>  0.0208  0.0048  0.0013  0.0059  0.0051  0.0011  0.0017  0.0003  0.0039 </r>
        <r>  0.0165  0.0038  0.0007  0.0076  0.0066  0.0003  0.0032  0.0003  0.0036 </r>
        <r>  0.0165  0.0056  0.0004  0.0056  0.0058  0.0007  0.0031  0.0000  0.0046 </r>
        <r>  0.0188  0.0043  0.0033  0.0061  0.0058  0.0006  0.0016  0.0003  0.0037 </r>
        <r>  0.0033  0.0029  0.0069  0.0091  0.0015  0.0007  0.0000  0.0009  0.0036 </r>
        <r>  0.0008  0.0030  0.0067  0.0098  0.0020  0.0032  0.0006  0.0015  0.0045 </r>
        <r>  0.0011  0.0035  0.0092  0.0095  0.0016  0.0018  0.0005  0.0020  0.0044 </r>
        <r>  0.0020  0.0034  0.0019  0.0092  0.0013  0.0023  0.0001  0.0016  0.0041 </r>
        <r>  0.0013  0.0030  0.0051  0.0100  0.0017  0.0018  0.0007  0.0011  0.0046 </r>
        <r>  0.0048  0.0039  0.0068  0.0118  0.0023  0.0029  0.0002  0.0012  0.0043 </r>
        <r>  0.0056  0.0046  0.0105  0.0109  0.0023  0.0020  0.0003  0.0016  0.0058 </r>
        <r>  0.0022  0.0039  0.0050  0.0111  0.0021  0.0014  0.0008  0.0014  0.0047 </r>
        <r>  0.0248  0.0063  0.0012  0.0088  0.0062  0.0003  0.0026  0.0001  0.0044 </r>
        <r>  0.0165  0.0046  0.0026  0.0106  0.0066  0.0009  0.0030  0.0004  0.0047 </r>
        <r>  0.0192  0.0069  0.0030  0.0092  0.0062  0.0009  0.0032  0.0005  0.0062 </r>
        <r>  0.0195  0.0046  0.0003  0.0090  0.0068  0.0007  0.0025  0.0002  0.0057 </r>
       </set>
       <set comment="band 98">
        <r>  0.0006  0.0000  0.0135  0.0002  0.0001  0.0015  0.0000  0.0049  0.0000 </r>
        <r>  0.0003  0.0002  0.0205  0.0000  0.0001  0.0046  0.0001  0.0057  0.0003 </r>
        <r>  0.0003  0.0001  0.0224  0.0002  0.0001  0.0045  0.0003  0.0043  0.0000 </r>
        <r>  0.0002  0.0002  0.0101  0.0001  0.0001  0.0017  0.0000  0.0057  0.0003 </r>
        <r>  0.0001  0.0002  0.0303  0.0001  0.0004  0.0036  0.0000  0.0032  0.0003 </r>
        <r>  0.0006  0.0002  0.0005  0.0002  0.0008  0.0016  0.0001  0.0106  0.0001 </r>
        <r>  0.0005  0.0006  0.0008  0.0001  0.0002  0.0023  0.0002  0.0072  0.0001 </r>
        <r>  0.0008  0.0002  0.0288  0.0000  0.0001  0.0047  0.0002  0.0021  0.0004 </r>
        <r>  0.0003  0.0005  0.0249  0.0003  0.0005  0.0029  0.0003  0.0040  0.0002 </r>
        <r>  0.0004  0.0000  0.0076  0.0001  0.0006  0.0019  0.0000  0.0091  0.0003 </r>
        <r>  0.0027  0.0006  0.0051  0.0003  0.0001  0.0021  0.0000  0.0053  0.0003 </r>
        <r>  0.0001  0.0001  0.0235  0.0002  0.0001  0.0046  0.0007  0.0025  0.0005 </r>
        <r>  0.0014  0.0014  0.0078  0.0008  0.0002  0.0030  0.0001  0.0048  0.0004 </r>
        <r>  0.0012  0.0003  0.0263  0.0004  0.0002  0.0024  0.0006  0.0037  0.0004 </r>
        <r>  0.0003  0.0001  0.0214  0.0001  0.0006  0.0031  0.0003  0.0035  0.0001 </r>
        <r>  0.0010  0.0003  0.0108  0.0004  0.0007  0.0030  0.0001  0.0063  0.0001 </r>
       </set>
       <set comment="band 99">
        <r>  0.0001  0.0001  0.0234  0.0001  0.0001  0.0049  0.0001  0.0023  0.0000 </r>
        <r>  0.0001  0.0000  0.0096  0.0000  0.0001  0.0031  0.0000  0.0049  0.0001 </r>
        <r>  0.0006  0.0001  0.0121  0.0001  0.0000  0.0033  0.0000  0.0046  0.0000 </r>
        <r>  0.0003  0.0002  0.0226  0.0000  0.0000  0.0056  0.0003  0.0029  0.0002 </r>
        <r>  0.0008  0.0003  0.0004  0.0000  0.0004  0.0034  0.0002  0.0064  0.0003 </r>
        <r>  0.0001  0.0000  0.0330  0.0001  0.0002  0.0058  0.0001  0.0016  0.0002 </r>
        <r>  0.0002  0.0000  0.0316  0.0001  0.0001  0.0068  0.0000  0.0008  0.0008 </r>
        <r>  0.0003  0.0007  0.0008  0.0006  0.0003  0.0030  0.0001  0.0069  0.0001 </r>
        <r>  0.0020  0.0001  0.0049  0.0007  0.0003  0.0040  0.0000  0.0048  0.0001 </r>
        <r>  0.0000  0.0005  0.0269  0.0003  0.0002  0.0050  0.0001  0.0023  0.0007 </r>
        <r>  0.0003  0.0000  0.0254  0.0000  0.0003  0.0068  0.0000  0.0025  0.0003 </r>
        <r>  0.0001  0.0008  0.0085  0.0000  0.0003  0.0029  0.0001  0.0062  0.0002 </r>
        <r>  0.0018  0.0001  0.0197  0.0002  0.0000  0.0029  0.0000  0.0017  0.0002 </r>
        <r>  0.0009  0.0000  0.0121  0.0001  0.0001  0.0047  0.0001  0.0051  0.0003 </r>
        <r>  0.0005  0.0002  0.0119  0.0007  0.0000  0.0052  0.0001  0.0044  0.0001 </r>
        <r>  0.0001  0.0002  0.0226  0.0006  0.0000  0.0039  0.0001  0.0027  0.0002 </r>
       </set>
       <set comment="band 100">
        <r>  0.0055  0.0010  0.0007  0.0009  0.0001  0.0000  0.0023  0.0002  0.0004 </r>
        <r>  0.0033  0.0008  0.0028  0.0012  0.0001  0.0001  0.0037  0.0001  0.0003 </r>
        <r>  0.0027  0.0007  0.0003  0.0015  0.0001  0.0004  0.0031  0.0002  0.0003 </r>
        <r>  0.0053  0.0008  0.0013  0.0009  0.0001  0.0002  0.0030  0.0000  0.0004 </r>
        <r>  0.0113  0.0017  0.0009  0.0008  0.0001  0.0005  0.0027  0.0005  0.0001 </r>
        <r>  0.0026  0.0003  0.0002  0.0001  0.0004  0.0000  0.0048  0.0002  0.0002 </r>
        <r>  0.0028  0.0005  0.0002  0.0003  0.0005  0.0001  0.0041  0.0002  0.0001 </r>
        <r>  0.0098  0.0012  0.0033  0.0004  0.0002  0.0002  0.0035  0.0003  0.0001 </r>
        <r>  0.0048  0.0004  0.0008  0.0006  0.0002  0.0004  0.0045  0.0000  0.0002 </r>
        <r>  0.0107  0.0015  0.0008  0.0008  0.0001  0.0001  0.0042  0.0001  0.0001 </r>
        <r>  0.0084  0.0012  0.0009  0.0005  0.0000  0.0006  0.0039  0.0011  0.0001 </r>
        <r>  0.0049  0.0006  0.0012  0.0003  0.0003  0.0000  0.0053  0.0006  0.0001 </r>
        <r>  0.0123  0.0014  0.0003  0.0011  0.0002  0.0002  0.0028  0.0004  0.0004 </r>
        <r>  0.0011  0.0006  0.0026  0.0008  0.0003  0.0008  0.0045  0.0009  0.0004 </r>
        <r>  0.0011  0.0006  0.0064  0.0010  0.0004  0.0004  0.0046  0.0000  0.0004 </r>
        <r>  0.0113  0.0009  0.0001  0.0012  0.0001  0.0002  0.0034  0.0004  0.0004 </r>
       </set>
       <set comment="band 101">
        <r>  0.0092  0.0038  0.0001  0.0116  0.0022  0.0003  0.0016  0.0004  0.0038 </r>
        <r>  0.0141  0.0047  0.0000  0.0127  0.0026  0.0001  0.0002  0.0005  0.0042 </r>
        <r>  0.0150  0.0053  0.0003  0.0109  0.0024  0.0004  0.0001  0.0008  0.0046 </r>
        <r>  0.0071  0.0038  0.0001  0.0109  0.0024  0.0001  0.0016  0.0006  0.0042 </r>
        <r>  0.0103  0.0023  0.0028  0.0011  0.0035  0.0020  0.0012  0.0042  0.0012 </r>
        <r>  0.0180  0.0030  0.0060  0.0024  0.0042  0.0016  0.0001  0.0046  0.0012 </r>
        <r>  0.0172  0.0047  0.0052  0.0009  0.0035  0.0030  0.0001  0.0059  0.0016 </r>
        <r>  0.0089  0.0021  0.0047  0.0008  0.0039  0.0018  0.0011  0.0049  0.0015 </r>
        <r>  0.0232  0.0046  0.0017  0.0026  0.0036  0.0017  0.0002  0.0040  0.0015 </r>
        <r>  0.0121  0.0033  0.0043  0.0026  0.0045  0.0017  0.0019  0.0050  0.0019 </r>
        <r>  0.0126  0.0028  0.0035  0.0006  0.0051  0.0029  0.0007  0.0067  0.0016 </r>
        <r>  0.0155  0.0035  0.0041  0.0012  0.0049  0.0020  0.0002  0.0055  0.0016 </r>
        <r>  0.0111  0.0050  0.0000  0.0129  0.0026  0.0006  0.0011  0.0014  0.0042 </r>
        <r>  0.0159  0.0051  0.0009  0.0165  0.0036  0.0000  0.0004  0.0001  0.0055 </r>
        <r>  0.0161  0.0069  0.0003  0.0150  0.0028  0.0002  0.0005  0.0003  0.0056 </r>
        <r>  0.0086  0.0049  0.0000  0.0134  0.0030  0.0001  0.0020  0.0006  0.0055 </r>
       </set>
       <set comment="band 102">
        <r>  0.0034  0.0004  0.0014  0.0001  0.0000  0.0004  0.0007  0.0002  0.0000 </r>
        <r>  0.0002  0.0001  0.0012  0.0001  0.0001  0.0002  0.0011  0.0000  0.0000 </r>
        <r>  0.0003  0.0001  0.0008  0.0001  0.0001  0.0002  0.0013  0.0002  0.0000 </r>
        <r>  0.0027  0.0003  0.0029  0.0001  0.0000  0.0003  0.0007  0.0001  0.0001 </r>
        <r>  0.0003  0.0001  0.0019  0.0001  0.0000  0.0003  0.0002  0.0001  0.0000 </r>
        <r>  0.0002  0.0001  0.0023  0.0001  0.0000  0.0004  0.0001  0.0001  0.0000 </r>
        <r>  0.0003  0.0001  0.0020  0.0001  0.0000  0.0003  0.0002  0.0002  0.0001 </r>
        <r>  0.0002  0.0001  0.0024  0.0001  0.0000  0.0003  0.0002  0.0001  0.0000 </r>
        <r>  0.0001  0.0000  0.0016  0.0000  0.0000  0.0003  0.0000  0.0001  0.0000 </r>
        <r>  0.0000  0.0000  0.0027  0.0000  0.0000  0.0005  0.0001  0.0001  0.0000 </r>
        <r>  0.0001  0.0000  0.0027  0.0000  0.0000  0.0003  0.0001  0.0002  0.0000 </r>
        <r>  0.0003  0.0001  0.0021  0.0000  0.0000  0.0003  0.0001  0.0001  0.0000 </r>
        <r>  0.0027  0.0003  0.0024  0.0001  0.0001  0.0003  0.0003  0.0002  0.0000 </r>
        <r>  0.0002  0.0001  0.0004  0.0000  0.0002  0.0001  0.0017  0.0000  0.0001 </r>
        <r>  0.0001  0.0000  0.0003  0.0000  0.0002  0.0001  0.0014  0.0001  0.0001 </r>
        <r>  0.0034  0.0004  0.0023  0.0001  0.0001  0.0002  0.0005  0.0000  0.0000 </r>
       </set>
       <set comment="band 103">
        <r>  0.0416  0.0053  0.0036  0.0031  0.0042  0.0003  0.0011  0.0002  0.0017 </r>
        <r>  0.0368  0.0033  0.0014  0.0045  0.0060  0.0003  0.0011  0.0002  0.0024 </r>
        <r>  0.0348  0.0063  0.0025  0.0017  0.0061  0.0002  0.0015  0.0003  0.0023 </r>
        <r>  0.0332  0.0026  0.0028  0.0019  0.0062  0.0006  0.0006  0.0004  0.0024 </r>
        <r>  0.0011  0.0012  0.0023  0.0036  0.0003  0.0009  0.0000  0.0028  0.0010 </r>
        <r>  0.0006  0.0014  0.0005  0.0041  0.0004  0.0018  0.0003  0.0046  0.0011 </r>
        <r>  0.0008  0.0012  0.0010  0.0036  0.0004  0.0012  0.0001  0.0041  0.0012 </r>
        <r>  0.0008  0.0012  0.0020  0.0037  0.0005  0.0017  0.0001  0.0044  0.0013 </r>
        <r>  0.0037  0.0018  0.0010  0.0047  0.0005  0.0005  0.0000  0.0016  0.0012 </r>
        <r>  0.0015  0.0014  0.0018  0.0041  0.0007  0.0016  0.0005  0.0033  0.0012 </r>
        <r>  0.0011  0.0014  0.0041  0.0027  0.0004  0.0011  0.0003  0.0032  0.0008 </r>
        <r>  0.0026  0.0015  0.0012  0.0032  0.0006  0.0010  0.0000  0.0029  0.0010 </r>
        <r>  0.0381  0.0043  0.0043  0.0021  0.0039  0.0002  0.0004  0.0003  0.0015 </r>
        <r>  0.0353  0.0037  0.0009  0.0032  0.0063  0.0002  0.0019  0.0001  0.0023 </r>
        <r>  0.0330  0.0051  0.0021  0.0014  0.0061  0.0002  0.0016  0.0001  0.0021 </r>
        <r>  0.0318  0.0034  0.0017  0.0018  0.0056  0.0002  0.0008  0.0001  0.0021 </r>
       </set>
       <set comment="band 104">
        <r>  0.0005  0.0000  0.0001  0.0001  0.0003  0.0001  0.0011  0.0000  0.0001 </r>
        <r>  0.0057  0.0005  0.0014  0.0004  0.0003  0.0003  0.0002  0.0000  0.0001 </r>
        <r>  0.0057  0.0008  0.0013  0.0001  0.0002  0.0002  0.0002  0.0002  0.0001 </r>
        <r>  0.0005  0.0000  0.0005  0.0001  0.0004  0.0000  0.0008  0.0000  0.0001 </r>
        <r>  0.0008  0.0000  0.0004  0.0002  0.0000  0.0002  0.0000  0.0002  0.0001 </r>
        <r>  0.0000  0.0002  0.0019  0.0003  0.0000  0.0003  0.0002  0.0003  0.0001 </r>
        <r>  0.0000  0.0002  0.0019  0.0003  0.0000  0.0002  0.0002  0.0003  0.0001 </r>
        <r>  0.0005  0.0001  0.0005  0.0002  0.0000  0.0002  0.0000  0.0003  0.0001 </r>
        <r>  0.0001  0.0002  0.0019  0.0003  0.0000  0.0002  0.0001  0.0002  0.0001 </r>
        <r>  0.0005  0.0001  0.0006  0.0002  0.0001  0.0002  0.0000  0.0002  0.0001 </r>
        <r>  0.0005  0.0001  0.0003  0.0002  0.0001  0.0002  0.0000  0.0003  0.0001 </r>
        <r>  0.0000  0.0003  0.0021  0.0003  0.0000  0.0002  0.0001  0.0003  0.0001 </r>
        <r>  0.0004  0.0001  0.0004  0.0001  0.0002  0.0001  0.0005  0.0001  0.0001 </r>
        <r>  0.0052  0.0006  0.0001  0.0003  0.0002  0.0001  0.0004  0.0000  0.0001 </r>
        <r>  0.0046  0.0006  0.0003  0.0002  0.0002  0.0001  0.0004  0.0001  0.0001 </r>
        <r>  0.0001  0.0000  0.0004  0.0001  0.0003  0.0000  0.0010  0.0000  0.0001 </r>
       </set>
       <set comment="band 105">
        <r>  0.0054  0.0002  0.0017  0.0001  0.0000  0.0001  0.0009  0.0000  0.0000 </r>
        <r>  0.0001  0.0002  0.0025  0.0001  0.0000  0.0004  0.0016  0.0002  0.0000 </r>
        <r>  0.0001  0.0005  0.0023  0.0001  0.0000  0.0005  0.0015  0.0001  0.0000 </r>
        <r>  0.0026  0.0001  0.0007  0.0000  0.0000  0.0001  0.0005  0.0001  0.0000 </r>
        <r>  0.0026  0.0008  0.0002  0.0006  0.0001  0.0001  0.0031  0.0001  0.0000 </r>
        <r>  0.0058  0.0002  0.0011  0.0004  0.0001  0.0000  0.0020  0.0000  0.0001 </r>
        <r>  0.0043  0.0005  0.0005  0.0001  0.0002  0.0001  0.0011  0.0000  0.0001 </r>
        <r>  0.0006  0.0017  0.0001  0.0004  0.0001  0.0001  0.0019  0.0001  0.0001 </r>
        <r>  0.0049  0.0014  0.0001  0.0006  0.0001  0.0000  0.0029  0.0002  0.0000 </r>
        <r>  0.0037  0.0000  0.0004  0.0001  0.0004  0.0000  0.0022  0.0003  0.0002 </r>
        <r>  0.0020  0.0001  0.0011  0.0000  0.0004  0.0001  0.0015  0.0001  0.0001 </r>
        <r>  0.0023  0.0018  0.0001  0.0005  0.0001  0.0002  0.0025  0.0001  0.0001 </r>
        <r>  0.0007  0.0005  0.0016  0.0003  0.0001  0.0001  0.0021  0.0000  0.0000 </r>
        <r>  0.0025  0.0001  0.0050  0.0002  0.0000  0.0005  0.0003  0.0004  0.0001 </r>
        <r>  0.0031  0.0004  0.0048  0.0002  0.0000  0.0004  0.0005  0.0000  0.0001 </r>
        <r>  0.0001  0.0002  0.0010  0.0001  0.0000  0.0006  0.0014  0.0003  0.0001 </r>
       </set>
      </set>
     </set>
    </set>
   </array>
  </projected>
 </calculation>
 <structure name="finalpos" >
  <crystal>
   <varray name="basis" >
    <v>       5.61089231       0.00000000       0.00000000 </v>
    <v>       2.80544615       4.85917528       0.00000000 </v>
    <v>       0.00000000       0.00000000      30.87191158 </v>
   </varray>
   <i name="volume">    841.70134257 </i>
   <varray name="rec_basis" >
    <v>       0.17822477      -0.10289812       0.00000000 </v>
    <v>       0.00000000       0.20579624       0.00000000 </v>
    <v>       0.00000000       0.00000000       0.03239190 </v>
   </varray>
  </crystal>
  <varray name="positions" >
   <v>       0.00000000       0.00000000       0.38870285 </v>
   <v>       0.50000000       0.00000000       0.38870285 </v>
   <v>       0.00000000       0.50000000       0.38870285 </v>
   <v>       0.50000000       0.50000000       0.38870285 </v>
   <v>       0.16666667       0.16666667       0.46290095 </v>
   <v>       0.66666667       0.16666667       0.46290095 </v>
   <v>       0.16666667       0.66666667       0.46290095 </v>
   <v>       0.66666667       0.66666667       0.46290095 </v>
   <v>       0.83688633       0.32873761       0.53644836 </v>
   <v>       0.32656733       0.33259344       0.53934202 </v>
   <v>       0.82804737       0.83453203       0.54219026 </v>
   <v>       0.32893265       0.83658008       0.53939402 </v>
   <v>       0.99651743       0.01012365       0.61141728 </v>
   <v>       0.50082614       0.99802854       0.62418812 </v>
   <v>       0.00042999       0.49826688       0.62033029 </v>
   <v>       0.50254630       0.49735282       0.61827848 </v>
  </varray>
  <varray name="selective"  type="logical" >
   <v type="logical" >  F  F  F </v>
   <v type="logical" >  F  F  F </v>
   <v type="logical" >  F  F  F </v>
   <v type="logical" >  F  F  F </v>
   <v type="logical" >  F  F  F </v>
   <v type="logical" >  F  F  F </v>
   <v type="logical" >  F  F  F </v>
   <v type="logical" >  F  F  F </v>
   <v type="logical" >  T  T  T </v>
   <v type="logical" >  T  T  T </v>
   <v type="logical" >  T  T  T </v>
   <v type="logical" >  T  T  T </v>
   <v type="logical" >  T  T  T </v>
   <v type="logical" >  T  T  T </v>
   <v type="logical" >  T  T  T </v>
   <v type="logical" >  T  T  T </v>
  </varray>
  <nose>
   <v>      -3.00000000       0.00000000       0.00010000       0.00010000 </v>
  </nose>
 </structure>
</modeling>
