Cu-Ag alloy CO adsorption (RPBE, matches
            1
     5.610892    0.000000    0.000000
     2.805446    4.859175    0.000000
     0.000000    0.000000   30.871912
   Cu   Ag   Cu   Ag   Cu   Ag   Cu   Ag
     1     3     1     3     1     3     1     3
Direct configuration=     1
   0.00000000  0.00000000  0.38870285
   0.50000000  0.00000000  0.38870285
   0.00000000  0.50000000  0.38870285
   0.50000000  0.50000000  0.38870285
   0.16666667  0.16666667  0.46290095
   0.66666667  0.16666667  0.46290095
   0.16666667  0.66666667  0.46290095
   0.66666667  0.66666667  0.46290095
   0.83333333  0.33333333  0.53709905
   0.33333333  0.33333333  0.53709905
   0.83333333  0.83333333  0.53709905
   0.33333333  0.83333333  0.53709905
   0.00000000  0.00000000  0.61129715
   0.50000000  0.00000000  0.61129715
   0.00000000  0.50000000  0.61129715
   0.50000000  0.50000000  0.61129715
Direct configuration=     2
   0.00000000  0.00000000  0.38870285
   0.50000000  0.00000000  0.38870285
   0.00000000  0.50000000  0.38870285
   0.50000000  0.50000000  0.38870285
   0.16666667  0.16666667  0.46290095
   0.66666667  0.16666667  0.46290095
   0.16666667  0.66666667  0.46290095
   0.66666667  0.66666667  0.46290095
   0.83520537  0.33149297  0.53685533
   0.33226701  0.33225482  0.53642819
   0.83432393  0.83436253  0.53738501
   0.33024413  0.83649389  0.53689867
   0.99928678  0.00129109  0.61097145
   0.50008069  0.99994982  0.61270063
   0.99889340  0.49900132  0.61222714
   0.50215188  0.49892693  0.61223432
Direct configuration=     3
   0.00000000  0.00000000  0.38870285
   0.50000000  0.00000000  0.38870285
   0.00000000  0.50000000  0.38870285
   0.50000000  0.50000000  0.38870285
   0.16666667  0.16666667  0.46290095
   0.66666667  0.16666667  0.46290095
   0.16666667  0.66666667  0.46290095
   0.66666667  0.66666667  0.46290095
   0.83855188  0.32820308  0.53641965
   0.33036081  0.33032683  0.53522894
   0.83609477  0.83620236  0.53789619
   0.32472177  0.84214382  0.53654046
   0.99801180  0.00359910  0.61038923
   0.50022494  0.99986013  0.61520954
   0.99691520  0.49721604  0.61388963
   0.50599866  0.49700867  0.61390963
Direct configuration=     4
   0.00000000  0.00000000  0.38870285
   0.50000000  0.00000000  0.38870285
   0.00000000  0.50000000  0.38870285
   0.50000000  0.50000000  0.38870285
   0.16666667  0.16666667  0.46290095
   0.66666667  0.16666667  0.46290095
   0.16666667  0.66666667  0.46290095
   0.66666667  0.66666667  0.46290095
   0.83913592  0.32762892  0.53634361
   0.33002814  0.32999036  0.53501965
   0.83640382  0.83652345  0.53798541
   0.32375799  0.84312985  0.53647795
   0.99778929  0.00400190  0.61028762
   0.50025012  0.99984447  0.61564740
   0.99656996  0.49690447  0.61417977
   0.50667000  0.49667389  0.61420201
Direct configuration=     5
   0.00000000  0.00000000  0.38870285
   0.50000000  0.00000000  0.38870285
   0.00000000  0.50000000  0.38870285
   0.50000000  0.50000000  0.38870285
   0.16666667  0.16666667  0.46290095
   0.66666667  0.16666667  0.46290095
   0.16666667  0.66666667  0.46290095
   0.66666667  0.66666667  0.46290095
   0.83859524  0.32858511  0.53618106
   0.32913758  0.33080628  0.53562288
   0.83397540  0.83641303  0.53886974
   0.32594473  0.84215579  0.53701460
   0.99761649  0.00465691  0.61003629
   0.49988245  0.00027527  0.61696786
   0.99867081  0.49596665  0.61499936
   0.50519740  0.49618007  0.61478280
Direct configuration=     6
   0.00000000  0.00000000  0.38870285
   0.50000000  0.00000000  0.38870285
   0.00000000  0.50000000  0.38870285
   0.50000000  0.50000000  0.38870285
   0.16666667  0.16666667  0.46290095
   0.66666667  0.16666667  0.46290095
   0.16666667  0.66666667  0.46290095
   0.66666667  0.66666667  0.46290095
   0.83716591  0.33111286  0.53575135
   0.32678333  0.33296322  0.53721755
   0.82755577  0.83612113  0.54120753
   0.33172548  0.83958080  0.53843326
   0.99715968  0.00638846  0.60937191
   0.49891050  0.00141412  0.62045856
   0.00422454  0.49348749  0.61716598
   0.50130451  0.49487464  0.61631816
Direct configuration=     7
   0.00000000  0.00000000  0.38870285
   0.50000000  0.00000000  0.38870285
   0.00000000  0.50000000  0.38870285
   0.50000000  0.50000000  0.38870285
   0.16666667  0.16666667  0.46290095
   0.66666667  0.16666667  0.46290095
   0.16666667  0.66666667  0.46290095
   0.66666667  0.66666667  0.46290095
   0.83661779  0.33086193  0.53578452
   0.32609590  0.33555497  0.53805993
   0.82833127  0.83576962  0.54166766
   0.33065616  0.83667751  0.53894667
   0.99699292  0.00798365  0.60959099
   0.50106172  0.99683403  0.62190484
   0.00064025  0.49542137  0.61829281
   0.50273383  0.49681028  0.61693939
Direct configuration=     8
   0.00000000  0.00000000  0.38870285
   0.50000000  0.00000000  0.38870285
   0.00000000  0.50000000  0.38870285
   0.50000000  0.50000000  0.38870285
   0.16666667  0.16666667  0.46290095
   0.66666667  0.16666667  0.46290095
   0.16666667  0.66666667  0.46290095
   0.66666667  0.66666667  0.46290095
   0.83648310  0.33080027  0.53579267
   0.32592699  0.33619180  0.53826691
   0.82852182  0.83568325  0.54178072
   0.33039341  0.83596413  0.53907282
   0.99695195  0.00837561  0.60964483
   0.50159031  0.99570863  0.62226021
   0.99975953  0.49589655  0.61856968
   0.50308504  0.49728590  0.61709204
Direct configuration=     9
   0.00000000  0.00000000  0.38870285
   0.50000000  0.00000000  0.38870285
   0.00000000  0.50000000  0.38870285
   0.50000000  0.50000000  0.38870285
   0.16666667  0.16666667  0.46290095
   0.66666667  0.16666667  0.46290095
   0.16666667  0.66666667  0.46290095
   0.66666667  0.66666667  0.46290095
   0.83694102  0.32950538  0.53596698
   0.32684173  0.33408311  0.53884863
   0.82752951  0.83663454  0.54174873
   0.32935558  0.83656920  0.53915174
   0.99663828  0.01005331  0.61027942
   0.50153087  0.99588561  0.62317114
   0.99968051  0.49607217  0.61938415
   0.50332563  0.49680345  0.61761261
Direct configuration=    10
   0.00000000  0.00000000  0.38870285
   0.50000000  0.00000000  0.38870285
   0.00000000  0.50000000  0.38870285
   0.50000000  0.50000000  0.38870285
   0.16666667  0.16666667  0.46290095
   0.66666667  0.16666667  0.46290095
   0.16666667  0.66666667  0.46290095
   0.66666667  0.66666667  0.46290095
   0.83746628  0.32802004  0.53616693
   0.32789102  0.33166425  0.53951592
   0.82639124  0.83772575  0.54171202
   0.32816510  0.83726327  0.53924225
   0.99627848  0.01197777  0.61100735
   0.50146268  0.99608863  0.62421606
   0.99958986  0.49627363  0.62031841
   0.50360161  0.49625004  0.61820976
Direct configuration=    11
   0.00000000  0.00000000  0.38870285
   0.50000000  0.00000000  0.38870285
   0.00000000  0.50000000  0.38870285
   0.50000000  0.50000000  0.38870285
   0.16666667  0.16666667  0.46290095
   0.66666667  0.16666667  0.46290095
   0.16666667  0.66666667  0.46290095
   0.66666667  0.66666667  0.46290095
   0.83728913  0.32852099  0.53609950
   0.32753713  0.33248003  0.53929087
   0.82677513  0.83735773  0.54172440
   0.32856660  0.83702919  0.53921173
   0.99639983  0.01132873  0.61076185
   0.50148568  0.99602016  0.62386365
   0.99962043  0.49620569  0.62000332
   0.50350853  0.49643668  0.61800837
Direct configuration=    12
   0.00000000  0.00000000  0.38870285
   0.50000000  0.00000000  0.38870285
   0.00000000  0.50000000  0.38870285
   0.50000000  0.50000000  0.38870285
   0.16666667  0.16666667  0.46290095
   0.66666667  0.16666667  0.46290095
   0.16666667  0.66666667  0.46290095
   0.66666667  0.66666667  0.46290095
   0.83730247  0.32855024  0.53630205
   0.32651147  0.33290218  0.53944933
   0.82798462  0.83538345  0.54194391
   0.32849071  0.83677351  0.53928497
   0.99640067  0.01081128  0.61122739
   0.50075446  0.99804255  0.62418458
   0.00115777  0.49694935  0.62028080
   0.50226556  0.49631854  0.61821140
Direct configuration=    13
   0.00000000  0.00000000  0.38870285
   0.50000000  0.00000000  0.38870285
   0.00000000  0.50000000  0.38870285
   0.50000000  0.50000000  0.38870285
   0.16666667  0.16666667  0.46290095
   0.66666667  0.16666667  0.46290095
   0.16666667  0.66666667  0.46290095
   0.66666667  0.66666667  0.46290095
   0.83730133  0.32854775  0.53628482
   0.32659874  0.33286626  0.53943585
   0.82788171  0.83555143  0.54192523
   0.32849717  0.83679526  0.53927874
   0.99640060  0.01085530  0.61118778
   0.50081668  0.99787048  0.62415728
   0.00102697  0.49688608  0.62025719
   0.50237131  0.49632859  0.61819413
Direct configuration=    14
   0.00000000  0.00000000  0.38870285
   0.50000000  0.00000000  0.38870285
   0.00000000  0.50000000  0.38870285
   0.50000000  0.50000000  0.38870285
   0.16666667  0.16666667  0.46290095
   0.66666667  0.16666667  0.46290095
   0.16666667  0.66666667  0.46290095
   0.66666667  0.66666667  0.46290095
   0.83688633  0.32873761  0.53644836
   0.32656733  0.33259344  0.53934202
   0.82804737  0.83453203  0.54219026
   0.32893265  0.83658008  0.53939402
   0.99651743  0.01012365  0.61141728
   0.50082614  0.99802854  0.62418812
   0.00042999  0.49826688  0.62033029
   0.50254630  0.49735282  0.61827848
