  34  34   1   0
  0.4631527E+02  0.1088944E-08  0.5444722E-09  0.3066840E-08  0.5000000E-15
   1.0000000000000000E-004
  CAR 
 Cu-Ag alloy CO adsorption (RPBE, matches
      6.99093134    -25.95687913  301     -0.84007590      1.00000000
    -25.957  0.0000E+00  0.0000E+00
    -25.847  0.0000E+00  0.0000E+00
    -25.737  0.0000E+00  0.0000E+00
    -25.627  0.0000E+00  0.0000E+00
    -25.518  0.0000E+00  0.0000E+00
    -25.408  0.0000E+00  0.0000E+00
    -25.298  0.0000E+00  0.0000E+00
    -25.188  0.0000E+00  0.0000E+00
    -25.078  0.0000E+00  0.0000E+00
    -24.968  0.2670E-13  0.2933E-14
    -24.859  0.7287E-09  0.8004E-10
    -24.749  0.1903E-05  0.2091E-06
    -24.639  0.4969E-03  0.5479E-04
    -24.529  0.1415E-01  0.1609E-02
    -24.419  0.5028E-01  0.7130E-02
    -24.309  0.2456E-01  0.9828E-02
    -24.200  0.1555E-02  0.9999E-02
    -24.090  0.1109E-04  0.1000E-01
    -23.980  0.8066E-08  0.1000E-01
    -23.870  0.5665E-12  0.1000E-01
    -23.760  0.0000E+00  0.1000E-01
    -23.651  0.0000E+00  0.1000E-01
    -23.541  0.0000E+00  0.1000E-01
    -23.431  0.0000E+00  0.1000E-01
    -23.321  0.0000E+00  0.1000E-01
    -23.211  0.0000E+00  0.1000E-01
    -23.101  0.0000E+00  0.1000E-01
    -22.992  0.0000E+00  0.1000E-01
    -22.882  0.0000E+00  0.1000E-01
    -22.772  0.0000E+00  0.1000E-01
    -22.662  0.0000E+00  0.1000E-01
    -22.552  0.0000E+00  0.1000E-01
    -22.442  0.0000E+00  0.1000E-01
    -22.333  0.0000E+00  0.1000E-01
    -22.223  0.0000E+00  0.1000E-01
    -22.113  0.0000E+00  0.1000E-01
    -22.003  0.0000E+00  0.1000E-01
    -21.893  0.0000E+00  0.1000E-01
    -21.783  0.0000E+00  0.1000E-01
    -21.674  0.0000E+00  0.1000E-01
    -21.564  0.0000E+00  0.1000E-01
    -21.454  0.0000E+00  0.1000E-01
    -21.344  0.0000E+00  0.1000E-01
    -21.234  0.0000E+00  0.1000E-01
    -21.125  0.0000E+00  0.1000E-01
    -21.015  0.0000E+00  0.1000E-01
    -20.905  0.0000E+00  0.1000E-01
    -20.795  0.0000E+00  0.1000E-01
    -20.685  0.0000E+00  0.1000E-01
    -20.575  0.0000E+00  0.1000E-01
    -20.466  0.0000E+00  0.1000E-01
    -20.356  0.0000E+00  0.1000E-01
    -20.246  0.0000E+00  0.1000E-01
    -20.136  0.0000E+00  0.1000E-01
    -20.026  0.0000E+00  0.1000E-01
    -19.916  0.0000E+00  0.1000E-01
    -19.807  0.0000E+00  0.1000E-01
    -19.697  0.0000E+00  0.1000E-01
    -19.587  0.0000E+00  0.1000E-01
    -19.477  0.0000E+00  0.1000E-01
    -19.367  0.0000E+00  0.1000E-01
    -19.257  0.0000E+00  0.1000E-01
    -19.148  0.0000E+00  0.1000E-01
    -19.038  0.0000E+00  0.1000E-01
    -18.928  0.0000E+00  0.1000E-01
    -18.818  0.0000E+00  0.1000E-01
    -18.708  0.0000E+00  0.1000E-01
    -18.599  0.0000E+00  0.1000E-01
    -18.489  0.0000E+00  0.1000E-01
    -18.379  0.0000E+00  0.1000E-01
    -18.269  0.0000E+00  0.1000E-01
    -18.159  0.0000E+00  0.1000E-01
    -18.049  0.0000E+00  0.1000E-01
    -17.940  0.0000E+00  0.1000E-01
    -17.830  0.0000E+00  0.1000E-01
    -17.720  0.0000E+00  0.1000E-01
    -17.610  0.0000E+00  0.1000E-01
    -17.500  0.0000E+00  0.1000E-01
    -17.390  0.0000E+00  0.1000E-01
    -17.281  0.0000E+00  0.1000E-01
    -17.171  0.0000E+00  0.1000E-01
    -17.061  0.0000E+00  0.1000E-01
    -16.951  0.0000E+00  0.1000E-01
    -16.841  0.0000E+00  0.1000E-01
    -16.731  0.0000E+00  0.1000E-01
    -16.622  0.0000E+00  0.1000E-01
    -16.512  0.0000E+00  0.1000E-01
    -16.402  0.0000E+00  0.1000E-01
    -16.292  0.0000E+00  0.1000E-01
    -16.182  0.0000E+00  0.1000E-01
    -16.073  0.0000E+00  0.1000E-01
    -15.963  0.0000E+00  0.1000E-01
    -15.853  0.0000E+00  0.1000E-01
    -15.743  0.0000E+00  0.1000E-01
    -15.633  0.0000E+00  0.1000E-01
    -15.523  0.0000E+00  0.1000E-01
    -15.414  0.0000E+00  0.1000E-01
    -15.304  0.0000E+00  0.1000E-01
    -15.194  0.0000E+00  0.1000E-01
    -15.084  0.0000E+00  0.1000E-01
    -14.974  0.0000E+00  0.1000E-01
    -14.864  0.0000E+00  0.1000E-01
    -14.755  0.0000E+00  0.1000E-01
    -14.645  0.0000E+00  0.1000E-01
    -14.535  0.0000E+00  0.1000E-01
    -14.425  0.0000E+00  0.1000E-01
    -14.315  0.0000E+00  0.1000E-01
    -14.205  0.0000E+00  0.1000E-01
    -14.096  0.0000E+00  0.1000E-01
    -13.986  0.0000E+00  0.1000E-01
    -13.876  0.0000E+00  0.1000E-01
    -13.766  0.0000E+00  0.1000E-01
    -13.656  0.0000E+00  0.1000E-01
    -13.547  0.0000E+00  0.1000E-01
    -13.437  0.0000E+00  0.1000E-01
    -13.327  0.0000E+00  0.1000E-01
    -13.217  0.0000E+00  0.1000E-01
    -13.107  0.0000E+00  0.1000E-01
    -12.997  0.0000E+00  0.1000E-01
    -12.888  0.0000E+00  0.1000E-01
    -12.778  0.0000E+00  0.1000E-01
    -12.668  0.0000E+00  0.1000E-01
    -12.558  0.0000E+00  0.1000E-01
    -12.448  0.0000E+00  0.1000E-01
    -12.338  0.0000E+00  0.1000E-01
    -12.229  0.0000E+00  0.1000E-01
    -12.119  0.0000E+00  0.1000E-01
    -12.009  0.0000E+00  0.1000E-01
    -11.899  0.0000E+00  0.1000E-01
    -11.789  0.0000E+00  0.1000E-01
    -11.679  0.0000E+00  0.1000E-01
    -11.570  0.0000E+00  0.1000E-01
    -11.460  0.3209E-14  0.1000E-01
    -11.350  0.1195E-09  0.1000E-01
    -11.240  0.4435E-06  0.1000E-01
    -11.130  0.1724E-03  0.1002E-01
    -11.021  0.7624E-02  0.1086E-01
    -10.911  0.4342E-01  0.1563E-01
    -10.801  0.3563E-01  0.1954E-01
    -10.691  0.4145E-02  0.1999E-01
    -10.581  0.6034E-04  0.2000E-01
    -10.471  0.9779E-07  0.2000E-01
    -10.362  0.1638E-10  0.2000E-01
    -10.252  0.2717E-15  0.2000E-01
    -10.142  0.0000E+00  0.2000E-01
    -10.032  0.0000E+00  0.2000E-01
     -9.922  0.0000E+00  0.2000E-01
     -9.812  0.0000E+00  0.2000E-01
     -9.703  0.0000E+00  0.2000E-01
     -9.593  0.0000E+00  0.2000E-01
     -9.483  0.0000E+00  0.2000E-01
     -9.373  0.3822E-16  0.2000E-01
     -9.263  0.2228E-11  0.2000E-01
     -9.153  0.1231E-07  0.2000E-01
     -9.044  0.6720E-05  0.2000E-01
     -8.934  0.4019E-03  0.2004E-01
     -8.824  0.3564E-02  0.2044E-01
     -8.714  0.8009E-02  0.2132E-01
     -8.604  0.6734E-02  0.2206E-01
     -8.495  0.1396E-01  0.2359E-01
     -8.385  0.2190E-01  0.2599E-01
     -8.275  0.1822E-01  0.2800E-01
     -8.165  0.2693E-01  0.3095E-01
     -8.055  0.4310E-01  0.3569E-01
     -7.945  0.2406E-01  0.3833E-01
     -7.836  0.1598E-01  0.4008E-01
     -7.726  0.3146E-01  0.4354E-01
     -7.616  0.7582E-01  0.5187E-01
     -7.506  0.1011E+00  0.6297E-01
     -7.396  0.9529E-01  0.7344E-01
     -7.286  0.1149E+00  0.8606E-01
     -7.177  0.1352E+00  0.1009E+00
     -7.067  0.1421E+00  0.1165E+00
     -6.957  0.1696E+00  0.1351E+00
     -6.847  0.1686E+00  0.1537E+00
     -6.737  0.1499E+00  0.1701E+00
     -6.627  0.1321E+00  0.1846E+00
     -6.518  0.1284E+00  0.1987E+00
     -6.408  0.1469E+00  0.2149E+00
     -6.298  0.2101E+00  0.2379E+00
     -6.188  0.2574E+00  0.2662E+00
     -6.078  0.2369E+00  0.2922E+00
     -5.969  0.2146E+00  0.3158E+00
     -5.859  0.2353E+00  0.3416E+00
     -5.749  0.2557E+00  0.3697E+00
     -5.639  0.2504E+00  0.3972E+00
     -5.529  0.2672E+00  0.4266E+00
     -5.419  0.2698E+00  0.4562E+00
     -5.310  0.2502E+00  0.4837E+00
     -5.200  0.2714E+00  0.5135E+00
     -5.090  0.2652E+00  0.5426E+00
     -4.980  0.2521E+00  0.5703E+00
     -4.870  0.2808E+00  0.6011E+00
     -4.760  0.3045E+00  0.6346E+00
     -4.651  0.3106E+00  0.6687E+00
     -4.541  0.3369E+00  0.7057E+00
     -4.431  0.3322E+00  0.7422E+00
     -4.321  0.3436E+00  0.7799E+00
     -4.211  0.3642E+00  0.8199E+00
     -4.101  0.3410E+00  0.8573E+00
     -3.992  0.3145E+00  0.8919E+00
     -3.882  0.3426E+00  0.9295E+00
     -3.772  0.3569E+00  0.9687E+00
     -3.662  0.3519E+00  0.1007E+01
     -3.552  0.3993E+00  0.1051E+01
     -3.443  0.4849E+00  0.1104E+01
     -3.333  0.5054E+00  0.1160E+01
     -3.223  0.5115E+00  0.1216E+01
     -3.113  0.5019E+00  0.1271E+01
     -3.003  0.4697E+00  0.1323E+01
     -2.893  0.5079E+00  0.1379E+01
     -2.784  0.5560E+00  0.1440E+01
     -2.674  0.5617E+00  0.1501E+01
     -2.564  0.5941E+00  0.1567E+01
     -2.454  0.6267E+00  0.1635E+01
     -2.344  0.5451E+00  0.1695E+01
     -2.234  0.2934E+00  0.1728E+01
     -2.125  0.1121E+00  0.1740E+01
     -2.015  0.6214E-01  0.1747E+01
     -1.905  0.5906E-01  0.1753E+01
     -1.795  0.5968E-01  0.1760E+01
     -1.685  0.3841E-01  0.1764E+01
     -1.575  0.3432E-01  0.1768E+01
     -1.466  0.3652E-01  0.1772E+01
     -1.356  0.4077E-01  0.1776E+01
     -1.246  0.4063E-01  0.1781E+01
     -1.136  0.6013E-01  0.1787E+01
     -1.026  0.8125E-01  0.1796E+01
     -0.917  0.8069E-01  0.1805E+01
     -0.807  0.6038E-01  0.1812E+01
     -0.697  0.4210E-01  0.1816E+01
     -0.587  0.4684E-01  0.1821E+01
     -0.477  0.6158E-01  0.1828E+01
     -0.367  0.6698E-01  0.1836E+01
     -0.258  0.5324E-01  0.1841E+01
     -0.148  0.4918E-01  0.1847E+01
     -0.038  0.6203E-01  0.1854E+01
      0.072  0.5067E-01  0.1859E+01
      0.182  0.4656E-01  0.1864E+01
      0.292  0.4204E-01  0.1869E+01
      0.401  0.4740E-01  0.1874E+01
      0.511  0.5948E-01  0.1881E+01
      0.621  0.5470E-01  0.1887E+01
      0.731  0.5651E-01  0.1893E+01
      0.841  0.5542E-01  0.1899E+01
      0.950  0.5954E-01  0.1906E+01
      1.060  0.4672E-01  0.1911E+01
      1.170  0.4487E-01  0.1916E+01
      1.280  0.5391E-01  0.1922E+01
      1.390  0.6653E-01  0.1929E+01
      1.500  0.5633E-01  0.1935E+01
      1.609  0.3891E-01  0.1939E+01
      1.719  0.4780E-01  0.1945E+01
      1.829  0.5931E-01  0.1951E+01
      1.939  0.4565E-01  0.1956E+01
      2.049  0.3361E-01  0.1960E+01
      2.159  0.5080E-01  0.1965E+01
      2.268  0.6208E-01  0.1972E+01
      2.378  0.4616E-01  0.1977E+01
      2.488  0.4496E-01  0.1982E+01
      2.598  0.4358E-01  0.1987E+01
      2.708  0.3153E-01  0.1990E+01
      2.818  0.2879E-01  0.1994E+01
      2.927  0.4471E-01  0.1998E+01
      3.037  0.5226E-01  0.2004E+01
      3.147  0.3045E-01  0.2008E+01
      3.257  0.3470E-01  0.2011E+01
      3.367  0.5743E-01  0.2018E+01
      3.476  0.6751E-01  0.2025E+01
      3.586  0.9330E-01  0.2035E+01
      3.696  0.8347E-01  0.2045E+01
      3.806  0.6265E-01  0.2051E+01
      3.916  0.6174E-01  0.2058E+01
      4.026  0.6621E-01  0.2065E+01
      4.135  0.8755E-01  0.2075E+01
      4.245  0.8946E-01  0.2085E+01
      4.355  0.1036E+00  0.2096E+01
      4.465  0.1090E+00  0.2108E+01
      4.575  0.8970E-01  0.2118E+01
      4.685  0.9059E-01  0.2128E+01
      4.794  0.9124E-01  0.2138E+01
      4.904  0.8912E-01  0.2148E+01
      5.014  0.6430E-01  0.2155E+01
      5.124  0.5243E-01  0.2161E+01
      5.234  0.3854E-01  0.2165E+01
      5.344  0.2592E-01  0.2168E+01
      5.453  0.1308E-01  0.2169E+01
      5.563  0.6242E-02  0.2170E+01
      5.673  0.1139E-02  0.2170E+01
      5.783  0.3422E-04  0.2170E+01
      5.893  0.1239E-06  0.2170E+01
      6.002  0.4668E-10  0.2170E+01
      6.112  0.1705E-14  0.2170E+01
      6.222  0.0000E+00  0.2170E+01
      6.332  0.0000E+00  0.2170E+01
      6.442  0.0000E+00  0.2170E+01
      6.552  0.0000E+00  0.2170E+01
      6.661  0.0000E+00  0.2170E+01
      6.771  0.0000E+00  0.2170E+01
      6.881  0.0000E+00  0.2170E+01
      6.991  0.0000E+00  0.2170E+01
      6.99093134    -25.95687913  301     -0.84007590      1.00000000
    -25.957  0.0000E+00  0.0000E+00  0.0000E+00  0.0000E+00  0.0000E+00  0.0000E+00  0.0000E+00  0.0000E+00  0.0000E+00
    -25.847  0.0000E+00  0.0000E+00  0.0000E+00  0.0000E+00  0.0000E+00  0.0000E+00  0.0000E+00  0.0000E+00  0.0000E+00
    -25.737  0.0000E+00  0.0000E+00  0.0000E+00  0.0000E+00  0.0000E+00  0.0000E+00  0.0000E+00  0.0000E+00  0.0000E+00
    -25.627  0.0000E+00  0.0000E+00  0.0000E+00  0.0000E+00  0.0000E+00  0.0000E+00  0.0000E+00  0.0000E+00  0.0000E+00
    -25.518  0.0000E+00  0.0000E+00  0.0000E+00  0.0000E+00  0.0000E+00  0.0000E+00  0.0000E+00  0.0000E+00  0.0000E+00
    -25.408  0.0000E+00  0.0000E+00  0.0000E+00  0.0000E+00  0.0000E+00  0.0000E+00  0.0000E+00  0.0000E+00  0.0000E+00
    -25.298  0.0000E+00  0.0000E+00  0.0000E+00  0.0000E+00  0.0000E+00  0.0000E+00  0.0000E+00  0.0000E+00  0.0000E+00
    -25.188  0.0000E+00  0.0000E+00  0.0000E+00  0.0000E+00  0.0000E+00  0.0000E+00  0.0000E+00  0.0000E+00  0.0000E+00
    -25.078  0.0000E+00  0.0000E+00  0.0000E+00  0.0000E+00  0.0000E+00  0.0000E+00  0.0000E+00  0.0000E+00  0.0000E+00
    -24.968  0.8130E-23  0.5681E-22  0.6154E-22  0.5579E-22  0.6870E-24  0.9644E-24  0.1705E-23  0.1273E-23  0.6050E-24
    -24.859  0.2219E-18  0.1548E-17  0.1680E-17  0.1521E-17  0.1873E-19  0.2632E-19  0.4654E-19  0.3479E-19  0.1652E-19
    -24.749  0.5796E-15  0.4035E-14  0.4389E-14  0.3968E-14  0.4884E-16  0.6875E-16  0.1216E-15  0.9093E-16  0.4318E-16
    -24.639  0.1514E-12  0.1052E-11  0.1147E-11  0.1036E-11  0.1274E-13  0.1796E-13  0.3177E-13  0.2377E-13  0.1129E-13
    -24.529  0.4312E-11  0.2991E-10  0.3266E-10  0.2946E-10  0.3623E-12  0.5114E-12  0.9049E-12  0.6776E-12  0.3216E-12
    -24.419  0.1532E-10  0.1061E-09  0.1161E-09  0.1046E-09  0.1286E-11  0.1817E-11  0.3217E-11  0.2410E-11  0.1143E-11
    -24.309  0.7488E-11  0.5178E-10  0.5675E-10  0.5107E-10  0.6276E-12  0.8881E-12  0.1572E-11  0.1178E-11  0.5590E-12
    -24.200  0.4740E-12  0.3273E-11  0.3593E-11  0.3230E-11  0.3968E-13  0.5622E-13  0.9955E-13  0.7466E-13  0.3541E-13
    -24.090  0.3383E-14  0.2332E-13  0.2565E-13  0.2303E-13  0.2828E-15  0.4013E-15  0.7107E-15  0.5333E-15  0.2529E-15
    -23.980  0.2460E-17  0.1693E-16  0.1866E-16  0.1673E-16  0.2054E-18  0.2918E-18  0.5170E-18  0.3882E-18  0.1840E-18
    -23.870  0.1728E-21  0.1187E-20  0.1311E-20  0.1174E-20  0.1441E-22  0.2050E-22  0.3633E-22  0.2729E-22  0.1293E-22
    -23.760  0.0000E+00  0.0000E+00  0.0000E+00  0.0000E+00  0.0000E+00  0.0000E+00  0.0000E+00  0.0000E+00  0.0000E+00
    -23.651  0.0000E+00  0.0000E+00  0.0000E+00  0.0000E+00  0.0000E+00  0.0000E+00  0.0000E+00  0.0000E+00  0.0000E+00
    -23.541  0.0000E+00  0.0000E+00  0.0000E+00  0.0000E+00  0.0000E+00  0.0000E+00  0.0000E+00  0.0000E+00  0.0000E+00
    -23.431  0.0000E+00  0.0000E+00  0.0000E+00  0.0000E+00  0.0000E+00  0.0000E+00  0.0000E+00  0.0000E+00  0.0000E+00
    -23.321  0.0000E+00  0.0000E+00  0.0000E+00  0.0000E+00  0.0000E+00  0.0000E+00  0.0000E+00  0.0000E+00  0.0000E+00
    -23.211  0.0000E+00  0.0000E+00  0.0000E+00  0.0000E+00  0.0000E+00  0.0000E+00  0.0000E+00  0.0000E+00  0.0000E+00
    -23.101  0.0000E+00  0.0000E+00  0.0000E+00  0.0000E+00  0.0000E+00  0.0000E+00  0.0000E+00  0.0000E+00  0.0000E+00
    -22.992  0.0000E+00  0.0000E+00  0.0000E+00  0.0000E+00  0.0000E+00  0.0000E+00  0.0000E+00  0.0000E+00  0.0000E+00
    -22.882  0.0000E+00  0.0000E+00  0.0000E+00  0.0000E+00  0.0000E+00  0.0000E+00  0.0000E+00  0.0000E+00  0.0000E+00
    -22.772  0.0000E+00  0.0000E+00  0.0000E+00  0.0000E+00  0.0000E+00  0.0000E+00  0.0000E+00  0.0000E+00  0.0000E+00
    -22.662  0.0000E+00  0.0000E+00  0.0000E+00  0.0000E+00  0.0000E+00  0.0000E+00  0.0000E+00  0.0000E+00  0.0000E+00
    -22.552  0.0000E+00  0.0000E+00  0.0000E+00  0.0000E+00  0.0000E+00  0.0000E+00  0.0000E+00  0.0000E+00  0.0000E+00
    -22.442  0.0000E+00  0.0000E+00  0.0000E+00  0.0000E+00  0.0000E+00  0.0000E+00  0.0000E+00  0.0000E+00  0.0000E+00
    -22.333  0.0000E+00  0.0000E+00  0.0000E+00  0.0000E+00  0.0000E+00  0.0000E+00  0.0000E+00  0.0000E+00  0.0000E+00
    -22.223  0.0000E+00  0.0000E+00  0.0000E+00  0.0000E+00  0.0000E+00  0.0000E+00  0.0000E+00  0.0000E+00  0.0000E+00
    -22.113  0.0000E+00  0.0000E+00  0.0000E+00  0.0000E+00  0.0000E+00  0.0000E+00  0.0000E+00  0.0000E+00  0.0000E+00
    -22.003  0.0000E+00  0.0000E+00  0.0000E+00  0.0000E+00  0.0000E+00  0.0000E+00  0.0000E+00  0.0000E+00  0.0000E+00
    -21.893  0.0000E+00  0.0000E+00  0.0000E+00  0.0000E+00  0.0000E+00  0.0000E+00  0.0000E+00  0.0000E+00  0.0000E+00
    -21.783  0.0000E+00  0.0000E+00  0.0000E+00  0.0000E+00  0.0000E+00  0.0000E+00  0.0000E+00  0.0000E+00  0.0000E+00
    -21.674  0.0000E+00  0.0000E+00  0.0000E+00  0.0000E+00  0.0000E+00  0.0000E+00  0.0000E+00  0.0000E+00  0.0000E+00
    -21.564  0.0000E+00  0.0000E+00  0.0000E+00  0.0000E+00  0.0000E+00  0.0000E+00  0.0000E+00  0.0000E+00  0.0000E+00
    -21.454  0.0000E+00  0.0000E+00  0.0000E+00  0.0000E+00  0.0000E+00  0.0000E+00  0.0000E+00  0.0000E+00  0.0000E+00
    -21.344  0.0000E+00  0.0000E+00  0.0000E+00  0.0000E+00  0.0000E+00  0.0000E+00  0.0000E+00  0.0000E+00  0.0000E+00
    -21.234  0.0000E+00  0.0000E+00  0.0000E+00  0.0000E+00  0.0000E+00  0.0000E+00  0.0000E+00  0.0000E+00  0.0000E+00
    -21.125  0.0000E+00  0.0000E+00  0.0000E+00  0.0000E+00  0.0000E+00  0.0000E+00  0.0000E+00  0.0000E+00  0.0000E+00
    -21.015  0.0000E+00  0.0000E+00  0.0000E+00  0.0000E+00  0.0000E+00  0.0000E+00  0.0000E+00  0.0000E+00  0.0000E+00
    -20.905  0.0000E+00  0.0000E+00  0.0000E+00  0.0000E+00  0.0000E+00  0.0000E+00  0.0000E+00  0.0000E+00  0.0000E+00
    -20.795  0.0000E+00  0.0000E+00  0.0000E+00  0.0000E+00  0.0000E+00  0.0000E+00  0.0000E+00  0.0000E+00  0.0000E+00
    -20.685  0.0000E+00  0.0000E+00  0.0000E+00  0.0000E+00  0.0000E+00  0.0000E+00  0.0000E+00  0.0000E+00  0.0000E+00
    -20.575  0.0000E+00  0.0000E+00  0.0000E+00  0.0000E+00  0.0000E+00  0.0000E+00  0.0000E+00  0.0000E+00  0.0000E+00
    -20.466  0.0000E+00  0.0000E+00  0.0000E+00  0.0000E+00  0.0000E+00  0.0000E+00  0.0000E+00  0.0000E+00  0.0000E+00
    -20.356  0.0000E+00  0.0000E+00  0.0000E+00  0.0000E+00  0.0000E+00  0.0000E+00  0.0000E+00  0.0000E+00  0.0000E+00
    -20.246  0.0000E+00  0.0000E+00  0.0000E+00  0.0000E+00  0.0000E+00  0.0000E+00  0.0000E+00  0.0000E+00  0.0000E+00
    -20.136  0.0000E+00  0.0000E+00  0.0000E+00  0.0000E+00  0.0000E+00  0.0000E+00  0.0000E+00  0.0000E+00  0.0000E+00
    -20.026  0.0000E+00  0.0000E+00  0.0000E+00  0.0000E+00  0.0000E+00  0.0000E+00  0.0000E+00  0.0000E+00  0.0000E+00
    -19.916  0.0000E+00  0.0000E+00  0.0000E+00  0.0000E+00  0.0000E+00  0.0000E+00  0.0000E+00  0.0000E+00  0.0000E+00
    -19.807  0.0000E+00  0.0000E+00  0.0000E+00  0.0000E+00  0.0000E+00  0.0000E+00  0.0000E+00  0.0000E+00  0.0000E+00
    -19.697  0.0000E+00  0.0000E+00  0.0000E+00  0.0000E+00  0.0000E+00  0.0000E+00  0.0000E+00  0.0000E+00  0.0000E+00
    -19.587  0.0000E+00  0.0000E+00  0.0000E+00  0.0000E+00  0.0000E+00  0.0000E+00  0.0000E+00  0.0000E+00  0.0000E+00
    -19.477  0.0000E+00  0.0000E+00  0.0000E+00  0.0000E+00  0.0000E+00  0.0000E+00  0.0000E+00  0.0000E+00  0.0000E+00
    -19.367  0.0000E+00  0.0000E+00  0.0000E+00  0.0000E+00  0.0000E+00  0.0000E+00  0.0000E+00  0.0000E+00  0.0000E+00
    -19.257  0.0000E+00  0.0000E+00  0.0000E+00  0.0000E+00  0.0000E+00  0.0000E+00  0.0000E+00  0.0000E+00  0.0000E+00
    -19.148  0.0000E+00  0.0000E+00  0.0000E+00  0.0000E+00  0.0000E+00  0.0000E+00  0.0000E+00  0.0000E+00  0.0000E+00
    -19.038  0.0000E+00  0.0000E+00  0.0000E+00  0.0000E+00  0.0000E+00  0.0000E+00  0.0000E+00  0.0000E+00  0.0000E+00
    -18.928  0.0000E+00  0.0000E+00  0.0000E+00  0.0000E+00  0.0000E+00  0.0000E+00  0.0000E+00  0.0000E+00  0.0000E+00
    -18.818  0.0000E+00  0.0000E+00  0.0000E+00  0.0000E+00  0.0000E+00  0.0000E+00  0.0000E+00  0.0000E+00  0.0000E+00
    -18.708  0.0000E+00  0.0000E+00  0.0000E+00  0.0000E+00  0.0000E+00  0.0000E+00  0.0000E+00  0.0000E+00  0.0000E+00
    -18.599  0.0000E+00  0.0000E+00  0.0000E+00  0.0000E+00  0.0000E+00  0.0000E+00  0.0000E+00  0.0000E+00  0.0000E+00
    -18.489  0.0000E+00  0.0000E+00  0.0000E+00  0.0000E+00  0.0000E+00  0.0000E+00  0.0000E+00  0.0000E+00  0.0000E+00
    -18.379  0.0000E+00  0.0000E+00  0.0000E+00  0.0000E+00  0.0000E+00  0.0000E+00  0.0000E+00  0.0000E+00  0.0000E+00
    -18.269  0.0000E+00  0.0000E+00  0.0000E+00  0.0000E+00  0.0000E+00  0.0000E+00  0.0000E+00  0.0000E+00  0.0000E+00
    -18.159  0.0000E+00  0.0000E+00  0.0000E+00  0.0000E+00  0.0000E+00  0.0000E+00  0.0000E+00  0.0000E+00  0.0000E+00
    -18.049  0.0000E+00  0.0000E+00  0.0000E+00  0.0000E+00  0.0000E+00  0.0000E+00  0.0000E+00  0.0000E+00  0.0000E+00
    -17.940  0.0000E+00  0.0000E+00  0.0000E+00  0.0000E+00  0.0000E+00  0.0000E+00  0.0000E+00  0.0000E+00  0.0000E+00
    -17.830  0.0000E+00  0.0000E+00  0.0000E+00  0.0000E+00  0.0000E+00  0.0000E+00  0.0000E+00  0.0000E+00  0.0000E+00
    -17.720  0.0000E+00  0.0000E+00  0.0000E+00  0.0000E+00  0.0000E+00  0.0000E+00  0.0000E+00  0.0000E+00  0.0000E+00
    -17.610  0.0000E+00  0.0000E+00  0.0000E+00  0.0000E+00  0.0000E+00  0.0000E+00  0.0000E+00  0.0000E+00  0.0000E+00
    -17.500  0.0000E+00  0.0000E+00  0.0000E+00  0.0000E+00  0.0000E+00  0.0000E+00  0.0000E+00  0.0000E+00  0.0000E+00
    -17.390  0.0000E+00  0.0000E+00  0.0000E+00  0.0000E+00  0.0000E+00  0.0000E+00  0.0000E+00  0.0000E+00  0.0000E+00
    -17.281  0.0000E+00  0.0000E+00  0.0000E+00  0.0000E+00  0.0000E+00  0.0000E+00  0.0000E+00  0.0000E+00  0.0000E+00
    -17.171  0.0000E+00  0.0000E+00  0.0000E+00  0.0000E+00  0.0000E+00  0.0000E+00  0.0000E+00  0.0000E+00  0.0000E+00
    -17.061  0.0000E+00  0.0000E+00  0.0000E+00  0.0000E+00  0.0000E+00  0.0000E+00  0.0000E+00  0.0000E+00  0.0000E+00
    -16.951  0.0000E+00  0.0000E+00  0.0000E+00  0.0000E+00  0.0000E+00  0.0000E+00  0.0000E+00  0.0000E+00  0.0000E+00
    -16.841  0.0000E+00  0.0000E+00  0.0000E+00  0.0000E+00  0.0000E+00  0.0000E+00  0.0000E+00  0.0000E+00  0.0000E+00
    -16.731  0.0000E+00  0.0000E+00  0.0000E+00  0.0000E+00  0.0000E+00  0.0000E+00  0.0000E+00  0.0000E+00  0.0000E+00
    -16.622  0.0000E+00  0.0000E+00  0.0000E+00  0.0000E+00  0.0000E+00  0.0000E+00  0.0000E+00  0.0000E+00  0.0000E+00
    -16.512  0.0000E+00  0.0000E+00  0.0000E+00  0.0000E+00  0.0000E+00  0.0000E+00  0.0000E+00  0.0000E+00  0.0000E+00
    -16.402  0.0000E+00  0.0000E+00  0.0000E+00  0.0000E+00  0.0000E+00  0.0000E+00  0.0000E+00  0.0000E+00  0.0000E+00
    -16.292  0.0000E+00  0.0000E+00  0.0000E+00  0.0000E+00  0.0000E+00  0.0000E+00  0.0000E+00  0.0000E+00  0.0000E+00
    -16.182  0.0000E+00  0.0000E+00  0.0000E+00  0.0000E+00  0.0000E+00  0.0000E+00  0.0000E+00  0.0000E+00  0.0000E+00
    -16.073  0.0000E+00  0.0000E+00  0.0000E+00  0.0000E+00  0.0000E+00  0.0000E+00  0.0000E+00  0.0000E+00  0.0000E+00
    -15.963  0.0000E+00  0.0000E+00  0.0000E+00  0.0000E+00  0.0000E+00  0.0000E+00  0.0000E+00  0.0000E+00  0.0000E+00
    -15.853  0.0000E+00  0.0000E+00  0.0000E+00  0.0000E+00  0.0000E+00  0.0000E+00  0.0000E+00  0.0000E+00  0.0000E+00
    -15.743  0.0000E+00  0.0000E+00  0.0000E+00  0.0000E+00  0.0000E+00  0.0000E+00  0.0000E+00  0.0000E+00  0.0000E+00
    -15.633  0.0000E+00  0.0000E+00  0.0000E+00  0.0000E+00  0.0000E+00  0.0000E+00  0.0000E+00  0.0000E+00  0.0000E+00
    -15.523  0.0000E+00  0.0000E+00  0.0000E+00  0.0000E+00  0.0000E+00  0.0000E+00  0.0000E+00  0.0000E+00  0.0000E+00
    -15.414  0.0000E+00  0.0000E+00  0.0000E+00  0.0000E+00  0.0000E+00  0.0000E+00  0.0000E+00  0.0000E+00  0.0000E+00
    -15.304  0.0000E+00  0.0000E+00  0.0000E+00  0.0000E+00  0.0000E+00  0.0000E+00  0.0000E+00  0.0000E+00  0.0000E+00
    -15.194  0.0000E+00  0.0000E+00  0.0000E+00  0.0000E+00  0.0000E+00  0.0000E+00  0.0000E+00  0.0000E+00  0.0000E+00
    -15.084  0.0000E+00  0.0000E+00  0.0000E+00  0.0000E+00  0.0000E+00  0.0000E+00  0.0000E+00  0.0000E+00  0.0000E+00
    -14.974  0.0000E+00  0.0000E+00  0.0000E+00  0.0000E+00  0.0000E+00  0.0000E+00  0.0000E+00  0.0000E+00  0.0000E+00
    -14.864  0.0000E+00  0.0000E+00  0.0000E+00  0.0000E+00  0.0000E+00  0.0000E+00  0.0000E+00  0.0000E+00  0.0000E+00
    -14.755  0.0000E+00  0.0000E+00  0.0000E+00  0.0000E+00  0.0000E+00  0.0000E+00  0.0000E+00  0.0000E+00  0.0000E+00
    -14.645  0.0000E+00  0.0000E+00  0.0000E+00  0.0000E+00  0.0000E+00  0.0000E+00  0.0000E+00  0.0000E+00  0.0000E+00
    -14.535  0.0000E+00  0.0000E+00  0.0000E+00  0.0000E+00  0.0000E+00  0.0000E+00  0.0000E+00  0.0000E+00  0.0000E+00
    -14.425  0.0000E+00  0.0000E+00  0.0000E+00  0.0000E+00  0.0000E+00  0.0000E+00  0.0000E+00  0.0000E+00  0.0000E+00
    -14.315  0.0000E+00  0.0000E+00  0.0000E+00  0.0000E+00  0.0000E+00  0.0000E+00  0.0000E+00  0.0000E+00  0.0000E+00
    -14.205  0.0000E+00  0.0000E+00  0.0000E+00  0.0000E+00  0.0000E+00  0.0000E+00  0.0000E+00  0.0000E+00  0.0000E+00
    -14.096  0.0000E+00  0.0000E+00  0.0000E+00  0.0000E+00  0.0000E+00  0.0000E+00  0.0000E+00  0.0000E+00  0.0000E+00
    -13.986  0.0000E+00  0.0000E+00  0.0000E+00  0.0000E+00  0.0000E+00  0.0000E+00  0.0000E+00  0.0000E+00  0.0000E+00
    -13.876  0.0000E+00  0.0000E+00  0.0000E+00  0.0000E+00  0.0000E+00  0.0000E+00  0.0000E+00  0.0000E+00  0.0000E+00
    -13.766  0.0000E+00  0.0000E+00  0.0000E+00  0.0000E+00  0.0000E+00  0.0000E+00  0.0000E+00  0.0000E+00  0.0000E+00
    -13.656  0.0000E+00  0.0000E+00  0.0000E+00  0.0000E+00  0.0000E+00  0.0000E+00  0.0000E+00  0.0000E+00  0.0000E+00
    -13.547  0.0000E+00  0.0000E+00  0.0000E+00  0.0000E+00  0.0000E+00  0.0000E+00  0.0000E+00  0.0000E+00  0.0000E+00
    -13.437  0.0000E+00  0.0000E+00  0.0000E+00  0.0000E+00  0.0000E+00  0.0000E+00  0.0000E+00  0.0000E+00  0.0000E+00
    -13.327  0.0000E+00  0.0000E+00  0.0000E+00  0.0000E+00  0.0000E+00  0.0000E+00  0.0000E+00  0.0000E+00  0.0000E+00
    -13.217  0.0000E+00  0.0000E+00  0.0000E+00  0.0000E+00  0.0000E+00  0.0000E+00  0.0000E+00  0.0000E+00  0.0000E+00
    -13.107  0.0000E+00  0.0000E+00  0.0000E+00  0.0000E+00  0.0000E+00  0.0000E+00  0.0000E+00  0.0000E+00  0.0000E+00
    -12.997  0.0000E+00  0.0000E+00  0.0000E+00  0.0000E+00  0.0000E+00  0.0000E+00  0.0000E+00  0.0000E+00  0.0000E+00
    -12.888  0.0000E+00  0.0000E+00  0.0000E+00  0.0000E+00  0.0000E+00  0.0000E+00  0.0000E+00  0.0000E+00  0.0000E+00
    -12.778  0.0000E+00  0.0000E+00  0.0000E+00  0.0000E+00  0.0000E+00  0.0000E+00  0.0000E+00  0.0000E+00  0.0000E+00
    -12.668  0.0000E+00  0.0000E+00  0.0000E+00  0.0000E+00  0.0000E+00  0.0000E+00  0.0000E+00  0.0000E+00  0.0000E+00
    -12.558  0.0000E+00  0.0000E+00  0.0000E+00  0.0000E+00  0.0000E+00  0.0000E+00  0.0000E+00  0.0000E+00  0.0000E+00
    -12.448  0.0000E+00  0.0000E+00  0.0000E+00  0.0000E+00  0.0000E+00  0.0000E+00  0.0000E+00  0.0000E+00  0.0000E+00
    -12.338  0.0000E+00  0.0000E+00  0.0000E+00  0.0000E+00  0.0000E+00  0.0000E+00  0.0000E+00  0.0000E+00  0.0000E+00
    -12.229  0.0000E+00  0.0000E+00  0.0000E+00  0.0000E+00  0.0000E+00  0.0000E+00  0.0000E+00  0.0000E+00  0.0000E+00
    -12.119  0.0000E+00  0.0000E+00  0.0000E+00  0.0000E+00  0.0000E+00  0.0000E+00  0.0000E+00  0.0000E+00  0.0000E+00
    -12.009  0.0000E+00  0.0000E+00  0.0000E+00  0.0000E+00  0.0000E+00  0.0000E+00  0.0000E+00  0.0000E+00  0.0000E+00
    -11.899  0.0000E+00  0.0000E+00  0.0000E+00  0.0000E+00  0.0000E+00  0.0000E+00  0.0000E+00  0.0000E+00  0.0000E+00
    -11.789  0.0000E+00  0.0000E+00  0.0000E+00  0.0000E+00  0.0000E+00  0.0000E+00  0.0000E+00  0.0000E+00  0.0000E+00
    -11.679  0.0000E+00  0.0000E+00  0.0000E+00  0.0000E+00  0.0000E+00  0.0000E+00  0.0000E+00  0.0000E+00  0.0000E+00
    -11.570  0.0000E+00  0.0000E+00  0.0000E+00  0.0000E+00  0.0000E+00  0.0000E+00  0.0000E+00  0.0000E+00  0.0000E+00
    -11.460  0.2455E-18  0.2219E-20  0.5455E-19  0.4167E-20  0.9911E-22  0.1567E-20  0.4752E-20  0.2871E-20  0.9592E-22
    -11.350  0.8501E-14  0.8785E-16  0.1897E-14  0.1492E-15  0.3800E-17  0.6264E-16  0.1677E-15  0.1027E-15  0.4350E-17
    -11.240  0.2861E-10  0.3478E-12  0.6424E-11  0.5226E-12  0.1459E-13  0.2514E-12  0.5782E-12  0.3597E-12  0.1969E-13
    -11.130  0.9810E-08  0.1438E-09  0.2219E-08  0.1876E-09  0.5890E-11  0.1058E-09  0.2042E-09  0.1292E-09  0.9211E-11
    -11.021  0.3724E-06  0.6683E-08  0.8497E-07  0.7496E-08  0.2709E-09  0.5021E-08  0.8029E-08  0.5164E-08  0.4768E-09
    -10.911  0.1785E-05  0.3939E-07  0.4112E-06  0.3790E-07  0.1604E-08  0.3029E-07  0.3998E-07  0.2616E-07  0.3074E-08
    -10.801  0.1207E-05  0.3297E-07  0.2811E-06  0.2712E-07  0.1366E-08  0.2600E-07  0.2818E-07  0.1877E-07  0.2779E-08
    -10.691  0.1117E-06  0.3862E-08  0.2638E-07  0.2677E-08  0.1648E-09  0.3132E-08  0.2740E-08  0.1861E-08  0.3493E-09
    -10.581  0.1247E-08  0.5590E-10  0.2992E-09  0.3216E-10  0.2485E-11  0.4673E-10  0.3239E-10  0.2250E-10  0.5391E-11
    -10.471  0.1510E-11  0.8922E-13  0.3691E-12  0.4225E-13  0.4151E-14  0.7685E-13  0.4185E-13  0.2983E-13  0.9097E-14
    -10.362  0.1866E-15  0.1466E-16  0.4665E-16  0.5718E-17  0.7128E-18  0.1297E-16  0.5573E-17  0.4086E-17  0.1564E-17
    -10.252  0.2265E-20  0.2382E-21  0.5823E-21  0.7665E-22  0.1205E-22  0.2159E-21  0.7377E-22  0.5560E-22  0.2642E-22
    -10.142  0.0000E+00  0.0000E+00  0.0000E+00  0.0000E+00  0.0000E+00  0.0000E+00  0.0000E+00  0.0000E+00  0.0000E+00
    -10.032  0.0000E+00  0.0000E+00  0.0000E+00  0.0000E+00  0.0000E+00  0.0000E+00  0.0000E+00  0.0000E+00  0.0000E+00
     -9.922  0.0000E+00  0.0000E+00  0.0000E+00  0.0000E+00  0.0000E+00  0.0000E+00  0.0000E+00  0.0000E+00  0.0000E+00
     -9.812  0.0000E+00  0.0000E+00  0.0000E+00  0.0000E+00  0.0000E+00  0.0000E+00  0.0000E+00  0.0000E+00  0.0000E+00
     -9.703  0.0000E+00  0.0000E+00  0.0000E+00  0.0000E+00  0.0000E+00  0.0000E+00  0.0000E+00  0.0000E+00  0.0000E+00
     -9.593  0.0000E+00  0.0000E+00  0.0000E+00  0.0000E+00  0.0000E+00  0.0000E+00  0.0000E+00  0.0000E+00  0.0000E+00
     -9.483  0.0000E+00  0.0000E+00  0.0000E+00  0.0000E+00  0.0000E+00  0.0000E+00  0.0000E+00  0.0000E+00  0.0000E+00
     -9.373  0.4807E-16  0.2267E-19  0.4576E-17  0.6661E-19  0.2065E-20  0.1579E-20  0.1541E-19  0.6017E-20  0.5660E-21
     -9.263  0.2802E-11  0.1322E-14  0.2668E-12  0.3885E-14  0.1204E-15  0.9216E-16  0.8985E-15  0.3510E-15  0.3299E-16
     -9.153  0.1548E-07  0.7325E-11  0.1474E-08  0.2153E-10  0.6648E-12  0.5136E-12  0.4963E-11  0.1952E-11  0.1823E-12
     -9.044  0.8448E-05  0.4095E-08  0.8044E-06  0.1204E-07  0.3619E-09  0.3002E-09  0.2700E-08  0.1123E-08  0.9930E-10
     -8.934  0.5041E-03  0.2882E-06  0.4808E-04  0.8486E-06  0.2124E-07  0.2682E-07  0.1577E-06  0.9288E-07  0.5861E-08
     -8.824  0.4423E-02  0.4511E-05  0.4251E-03  0.1333E-04  0.1704E-06  0.6385E-06  0.1229E-05  0.1983E-05  0.4851E-07