       N       E                     dE             d eps       ncg     rms          rms(c)
DAV:   1     0.324933588580E+04    0.32493E+04   -0.13693E+05  4340   0.149E+03
DAV:   2     0.358794906446E+03   -0.28905E+04   -0.26933E+04  4495   0.381E+02
DAV:   3    -0.691107796733E+02   -0.42791E+03   -0.38949E+03  5714   0.188E+02
DAV:   4    -0.108918105342E+03   -0.39807E+02   -0.38427E+02  6704   0.608E+01
DAV:   5    -0.109996777944E+03   -0.10787E+01   -0.10299E+01  6632   0.112E+01    0.399E+01
DAV:   6    -0.106982986337E+03    0.30138E+01   -0.19917E+02  5720   0.115E+02    0.244E+01
DAV:   7    -0.943262583141E+02    0.12657E+02   -0.60283E+01  5320   0.133E+02    0.147E+01
DAV:   8    -0.964876269964E+02   -0.21614E+01   -0.22360E+01  6648   0.688E+01    0.142E+01
DAV:   9    -0.962881066988E+02    0.19952E+00   -0.19222E+01  5983   0.658E+01    0.879E+00
DAV:  10    -0.949796782642E+02    0.13084E+01   -0.97164E+00  6200   0.498E+01    0.542E+00
DAV:  11    -0.944979122722E+02    0.48177E+00   -0.36307E+00  6264   0.272E+01    0.245E+00
DAV:  12    -0.945114744845E+02   -0.13562E-01   -0.15288E+00  5768   0.128E+01    0.150E+00
DAV:  13    -0.945060908152E+02    0.53837E-02   -0.45432E-01  5712   0.507E+00    0.590E-01
DAV:  14    -0.945018556729E+02    0.42351E-02   -0.62511E-02  6360   0.275E+00    0.292E-01
DAV:  15    -0.945007719393E+02    0.10837E-02   -0.18059E-02  5559   0.150E+00    0.200E-01
DAV:  16    -0.944998902356E+02    0.88170E-03   -0.92284E-03  4878   0.117E+00    0.113E-01
DAV:  17    -0.944995324156E+02    0.35782E-03   -0.19639E-03  5398   0.461E-01    0.494E-02
DAV:  18    -0.944995376405E+02   -0.52249E-05   -0.51762E-04  6246   0.297E-01    0.418E-02
DAV:  19    -0.944996943478E+02   -0.15671E-03   -0.27280E-04  5414   0.233E-01    0.261E-02
DAV:  20    -0.945000136044E+02   -0.31926E-03   -0.16913E-04  5461   0.122E-01    0.150E-02
DAV:  21    -0.945002906945E+02   -0.27709E-03   -0.64805E-05  6220   0.865E-02    0.124E-02
DAV:  22    -0.945005033401E+02   -0.21265E-03   -0.35871E-05  5407   0.720E-02    0.851E-03
DAV:  23    -0.945007197457E+02   -0.21641E-03   -0.21427E-05  5284   0.398E-02    0.473E-03
DAV:  24    -0.945008436420E+02   -0.12390E-03   -0.11104E-05  4894   0.296E-02    0.452E-03
DAV:  25    -0.945009179657E+02   -0.74324E-04   -0.45448E-06  3272   0.249E-02    0.221E-03
DAV:  26    -0.945010001403E+02   -0.82175E-04   -0.62762E-06  4158   0.116E-02    0.227E-03
DAV:  27    -0.945010338027E+02   -0.33662E-04   -0.10882E-06  3056   0.125E-02    0.151E-03
DAV:  28    -0.945010721721E+02   -0.38369E-04   -0.11042E-06  2822   0.905E-03    0.189E-03
DAV:  29    -0.945010954696E+02   -0.23297E-04   -0.93755E-07  2902   0.947E-03    0.103E-03
DAV:  30    -0.945011067510E+02   -0.11281E-04   -0.47611E-07  2800   0.517E-03    0.657E-04
DAV:  31    -0.945011138550E+02   -0.71040E-05   -0.25527E-07  2806   0.428E-03    0.502E-04
DAV:  32    -0.945011201279E+02   -0.62729E-05   -0.20129E-07  2646   0.308E-03    0.598E-04
DAV:  33    -0.945011234855E+02   -0.33576E-05   -0.14270E-07  2726   0.300E-03    0.376E-04
DAV:  34    -0.945011241728E+02   -0.68726E-06   -0.57217E-08  2640   0.165E-03
   1 F= -.94501124E+02 E0= -.94462532E+02  d E =-.945011E+02
       N       E                     dE             d eps       ncg     rms          rms(c)
DAV:   1    -0.917287265829E+02    0.27724E+01   -0.59990E+02  4357   0.433E+01    0.605E+00
DAV:   2    -0.934634174313E+02   -0.17347E+01   -0.22348E+01  6933   0.268E+01    0.712E+00
DAV:   3    -0.926133369011E+02    0.85008E+00   -0.77600E+00  6440   0.360E+01    0.381E+00
DAV:   4    -0.924371323309E+02    0.17620E+00   -0.25652E+00  6624   0.282E+01    0.272E+00
DAV:   5    -0.923321694587E+02    0.10496E+00   -0.10781E+00  7632   0.171E+01    0.160E+00
DAV:   6    -0.923040939853E+02    0.28075E-01   -0.31968E-01  6424   0.589E+00    0.574E-01
DAV:   7    -0.923141381127E+02   -0.10044E-01   -0.95514E-02  6030   0.374E+00    0.491E-01
DAV:   8    -0.923164571049E+02   -0.23190E-02   -0.50137E-02  5192   0.329E+00    0.258E-01
DAV:   9    -0.923195881870E+02   -0.31311E-02   -0.97458E-03  5637   0.978E-01    0.136E-01
DAV:  10    -0.923216486914E+02   -0.20605E-02   -0.35372E-03  5880   0.765E-01    0.879E-02
DAV:  11    -0.923228187624E+02   -0.11701E-02   -0.12601E-03  5888   0.528E-01    0.499E-02
DAV:  12    -0.923237171889E+02   -0.89843E-03   -0.64735E-04  5888   0.252E-01    0.344E-02
DAV:  13    -0.923249372977E+02   -0.12201E-02   -0.50017E-04  5847   0.159E-01    0.263E-02
DAV:  14    -0.923256041724E+02   -0.66687E-03   -0.24029E-04  6136   0.159E-01    0.162E-02
DAV:  15    -0.923259905003E+02   -0.38633E-03   -0.11116E-04  5984   0.764E-02    0.129E-02
DAV:  16    -0.923262524097E+02   -0.26191E-03   -0.56648E-05  5936   0.460E-02    0.844E-03
DAV:  17    -0.923264338996E+02   -0.18149E-03   -0.36589E-05  6024   0.458E-02    0.558E-03
DAV:  18    -0.923265034493E+02   -0.69550E-04   -0.94263E-06  5824   0.324E-02    0.350E-03
DAV:  19    -0.923265717441E+02   -0.68295E-04   -0.69122E-06  4744   0.179E-02    0.262E-03
DAV:  20    -0.923266097175E+02   -0.37973E-04   -0.17461E-06  3064   0.132E-02    0.193E-03
DAV:  21    -0.923266291714E+02   -0.19454E-04   -0.12400E-06  2952   0.114E-02    0.125E-03
DAV:  22    -0.923266519124E+02   -0.22741E-04   -0.21689E-06  3263   0.747E-03    0.932E-04
DAV:  23    -0.923266590344E+02   -0.71220E-05   -0.56461E-07  2832   0.622E-03    0.848E-04
DAV:  24    -0.923266635943E+02   -0.45600E-05   -0.38464E-07  2704   0.506E-03    0.508E-04
DAV:  25    -0.923266680138E+02   -0.44195E-05   -0.32639E-07  2656   0.359E-03    0.466E-04
DAV:  26    -0.923266696279E+02   -0.16140E-05   -0.16519E-07  2640   0.290E-03    0.323E-04
DAV:  27    -0.923266712684E+02   -0.16406E-05   -0.10446E-07  2544   0.215E-03    0.208E-04
DAV:  28    -0.923266723011E+02   -0.10327E-05   -0.61090E-08  2584   0.149E-03    0.164E-04
DAV:  29    -0.923266727323E+02   -0.43120E-06   -0.26705E-08  2552   0.117E-03
   2 F= -.92326673E+02 E0= -.92295377E+02  d E =0.217445E+01
       N       E                     dE             d eps       ncg     rms          rms(c)
DAV:   1    -0.934259917199E+02   -0.10993E+01   -0.18088E+02  4340   0.304E+01    0.378E+00
DAV:   2    -0.944699470044E+02   -0.10440E+01   -0.11208E+01  6447   0.148E+01    0.367E+00
DAV:   3    -0.944131127758E+02    0.56834E-01   -0.30788E+00  6072   0.217E+01    0.251E+00
DAV:   4    -0.942617797561E+02    0.15133E+00   -0.95574E-01  5743   0.154E+01    0.149E+00
DAV:   5    -0.942298748282E+02    0.31905E-01   -0.12361E-01  6214   0.580E+00    0.103E+00
DAV:   6    -0.942116913172E+02    0.18184E-01   -0.87386E-02  5640   0.442E+00    0.576E-01
DAV:   7    -0.942080177420E+02    0.36736E-02   -0.44589E-02  5688   0.329E+00    0.228E-01
DAV:   8    -0.942074082320E+02    0.60951E-03   -0.10512E-02  6368   0.127E+00    0.135E-01
DAV:   9    -0.942073418594E+02    0.66373E-04   -0.31217E-03  5430   0.468E-01    0.918E-02
DAV:  10    -0.942073895742E+02   -0.47715E-04   -0.13023E-03  5423   0.538E-01    0.663E-02
DAV:  11    -0.942076055164E+02   -0.21594E-03   -0.41233E-04  5895   0.327E-01    0.289E-02
DAV:  12    -0.942078658903E+02   -0.26037E-03   -0.21453E-04  6190   0.132E-01    0.206E-02
DAV:  13    -0.942081521087E+02   -0.28622E-03   -0.78102E-05  5464   0.101E-01    0.176E-02
DAV:  14    -0.942084620137E+02   -0.30991E-03   -0.47144E-05  5726   0.840E-02    0.117E-02
DAV:  15    -0.942088314259E+02   -0.36941E-03   -0.46187E-05  5816   0.576E-02    0.610E-03
DAV:  16    -0.942090599287E+02   -0.22850E-03   -0.15994E-05  5968   0.292E-02    0.523E-03
DAV:  17    -0.942091911325E+02   -0.13120E-03   -0.60886E-06  4360   0.318E-02    0.357E-03
DAV:  18    -0.942093241234E+02   -0.13299E-03   -0.73164E-06  4606   0.178E-02    0.254E-03
DAV:  19    -0.942093791335E+02   -0.55010E-04   -0.14111E-06  3176   0.910E-03    0.158E-03
DAV:  20    -0.942094240780E+02   -0.44944E-04   -0.11636E-06  2888   0.104E-02    0.151E-03
DAV:  21    -0.942094467798E+02   -0.22702E-04   -0.97469E-07  2944   0.842E-03    0.911E-04
DAV:  22    -0.942094655162E+02   -0.18736E-04   -0.81676E-07  2800   0.501E-03    0.724E-04
DAV:  23    -0.942094766216E+02   -0.11105E-04   -0.47632E-07  2768   0.510E-03    0.736E-04
DAV:  24    -0.942094817293E+02   -0.51077E-05   -0.27381E-07  2736   0.389E-03    0.420E-04
DAV:  25    -0.942094844010E+02   -0.26717E-05   -0.15969E-07  2703   0.248E-03    0.296E-04
DAV:  26    -0.942094872924E+02   -0.28913E-05   -0.10316E-07  2590   0.188E-03    0.273E-04
DAV:  27    -0.942094883176E+02   -0.10252E-05   -0.49265E-08  2632   0.153E-03    0.206E-04
DAV:  28    -0.942094892248E+02   -0.90722E-06   -0.31469E-08  2504   0.106E-03
   3 F= -.94209489E+02 E0= -.94174286E+02  d E =0.291635E+00
       N       E                     dE             d eps       ncg     rms          rms(c)
DAV:   1    -0.945280874731E+02   -0.31860E+00   -0.29087E+01  4349   0.113E+01    0.163E+00
DAV:   2    -0.946776349962E+02   -0.14955E+00   -0.16856E+00  6652   0.523E+00    0.140E+00
DAV:   3    -0.946685250083E+02    0.91100E-02   -0.32578E-01  5885   0.826E+00    0.105E+00
DAV:   4    -0.946484519693E+02    0.20073E-01   -0.20048E-01  5437   0.761E+00    0.711E-01
DAV:   5    -0.946342906412E+02    0.14161E-01   -0.43074E-02  5686   0.362E+00    0.300E-01
DAV:   6    -0.946327971452E+02    0.14935E-02   -0.14383E-02  6048   0.203E+00    0.176E-01
DAV:   7    -0.946327217151E+02    0.75430E-04   -0.63634E-03  5712   0.110E+00    0.826E-02
DAV:   8    -0.946327558022E+02   -0.34087E-04   -0.14419E-03  5224   0.373E-01    0.545E-02
DAV:   9    -0.946329137542E+02   -0.15795E-03   -0.55317E-04  5400   0.256E-01    0.431E-02
DAV:  10    -0.946330028829E+02   -0.89129E-04   -0.21151E-04  5568   0.229E-01    0.181E-02
DAV:  11    -0.946331590970E+02   -0.15621E-03   -0.75651E-05  6240   0.941E-02    0.134E-02
DAV:  12    -0.946332745554E+02   -0.11546E-03   -0.29419E-05  5672   0.580E-02    0.960E-03
DAV:  13    -0.946334388986E+02   -0.16434E-03   -0.23280E-05  5008   0.520E-02    0.820E-03
DAV:  14    -0.946335650021E+02   -0.12610E-03   -0.11638E-05  5200   0.371E-02    0.460E-03
DAV:  15    -0.946336892913E+02   -0.12429E-03   -0.80592E-06  4080   0.199E-02    0.278E-03
DAV:  16    -0.946337767318E+02   -0.87440E-04   -0.53948E-06  4312   0.165E-02    0.250E-03
DAV:  17    -0.946338320161E+02   -0.55284E-04   -0.32488E-06  3624   0.166E-02    0.156E-03
DAV:  18    -0.946338602091E+02   -0.28193E-04   -0.13855E-06  3040   0.892E-03    0.127E-03
DAV:  19    -0.946338757602E+02   -0.15551E-04   -0.58363E-07  2832   0.657E-03    0.996E-04
DAV:  20    -0.946338922608E+02   -0.16501E-04   -0.58024E-07  2800   0.618E-03    0.719E-04
DAV:  21    -0.946339017727E+02   -0.95119E-05   -0.41251E-07  2792   0.401E-03    0.563E-04
DAV:  22    -0.946339073044E+02   -0.55317E-05   -0.26642E-07  2703   0.372E-03    0.489E-04
DAV:  23    -0.946339099377E+02   -0.26333E-05   -0.12848E-07  2750   0.251E-03    0.379E-04
DAV:  24    -0.946339111483E+02   -0.12106E-05   -0.77264E-08  2599   0.187E-03    0.208E-04
DAV:  25    -0.946339122780E+02   -0.11298E-05   -0.45371E-08  2599   0.123E-03    0.219E-04
DAV:  26    -0.946339127938E+02   -0.51572E-06   -0.23582E-08  2592   0.110E-03
   4 F= -.94633913E+02 E0= -.94596926E+02  d E =-.132789E+00
       N       E                     dE             d eps       ncg     rms          rms(c)
DAV:   1    -0.946628011644E+02   -0.28889E-01   -0.20305E+00  4346   0.275E+00    0.462E-01
DAV:   2    -0.946707703607E+02   -0.79692E-02   -0.94834E-02  6419   0.121E+00    0.349E-01
DAV:   3    -0.946708233236E+02   -0.52963E-04   -0.21766E-02  5596   0.224E+00    0.291E-01
DAV:   4    -0.946691678477E+02    0.16555E-02   -0.18546E-02  5357   0.238E+00    0.196E-01
DAV:   5    -0.946679285702E+02    0.12393E-02   -0.39256E-03  5732   0.116E+00    0.694E-02
DAV:   6    -0.946678658322E+02    0.62738E-04   -0.88573E-04  6296   0.491E-01    0.411E-02
DAV:   7    -0.946678782289E+02   -0.12397E-04   -0.37922E-04  5744   0.241E-01    0.219E-02
DAV:   8    -0.946678937307E+02   -0.15502E-04   -0.79433E-05  5312   0.885E-02    0.138E-02
DAV:   9    -0.946679257199E+02   -0.31989E-04   -0.37678E-05  5336   0.756E-02    0.108E-02
DAV:  10    -0.946679417616E+02   -0.16042E-04   -0.12616E-05  4488   0.578E-02    0.412E-03
DAV:  11    -0.946679678167E+02   -0.26055E-04   -0.47658E-06  3800   0.193E-02    0.352E-03
DAV:  12    -0.946679870445E+02   -0.19228E-04   -0.26840E-06  3272   0.184E-02    0.268E-03
DAV:  13    -0.946680093051E+02   -0.22261E-04   -0.21008E-06  2968   0.141E-02    0.210E-03
DAV:  14    -0.946680292177E+02   -0.19913E-04   -0.17709E-06  3016   0.102E-02    0.122E-03
DAV:  15    -0.946680452605E+02   -0.16043E-04   -0.14175E-06  2976   0.680E-03    0.111E-03
DAV:  16    -0.946680539376E+02   -0.86771E-05   -0.73171E-07  2800   0.707E-03    0.886E-04
DAV:  17    -0.946680634349E+02   -0.94973E-05   -0.76924E-07  2864   0.518E-03    0.517E-04
DAV:  18    -0.946680682604E+02   -0.48255E-05   -0.42124E-07  2824   0.361E-03    0.514E-04
DAV:  19    -0.946680697633E+02   -0.15029E-05   -0.19209E-07  2728   0.285E-03    0.352E-04
DAV:  20    -0.946680727582E+02   -0.29949E-05   -0.13298E-07  2648   0.218E-03    0.321E-04
DAV:  21    -0.946680741266E+02   -0.13684E-05   -0.82640E-08  2704   0.180E-03    0.199E-04
DAV:  22    -0.946680745570E+02   -0.43045E-06   -0.40689E-08  2600   0.123E-03
   5 F= -.94668075E+02 E0= -.94630638E+02  d E =-.166950E+00
       N       E                     dE             d eps       ncg     rms          rms(c)
DAV:   1    -0.946695202775E+02   -0.14462E-02   -0.17471E-01  4367   0.783E-01    0.140E-01
DAV:   2    -0.946701058653E+02   -0.58559E-03   -0.72640E-03  6365   0.339E-01    0.973E-02
DAV:   3    -0.946701718571E+02   -0.65992E-04   -0.19986E-03  5540   0.696E-01    0.893E-02
DAV:   4    -0.946699788992E+02    0.19296E-03   -0.17767E-03  5373   0.746E-01    0.553E-02
DAV:   5    -0.946698787397E+02    0.10016E-03   -0.31779E-04  5755   0.343E-01    0.204E-02
DAV:   6    -0.946698725099E+02    0.62298E-05   -0.70496E-05  6336   0.137E-01    0.109E-02
DAV:   7    -0.946698740361E+02   -0.15262E-05   -0.28818E-05  4944   0.621E-02    0.612E-03
DAV:   8    -0.946698759584E+02   -0.19222E-05   -0.58149E-06  4016   0.249E-02    0.385E-03
DAV:   9    -0.946698799144E+02   -0.39561E-05   -0.31580E-06  3784   0.232E-02    0.308E-03
DAV:  10    -0.946698819680E+02   -0.20536E-05   -0.11294E-06  2832   0.167E-02    0.120E-03
DAV:  11    -0.946698851846E+02   -0.32166E-05   -0.67785E-07  2752   0.595E-03    0.117E-03
DAV:  12    -0.946698875753E+02   -0.23908E-05   -0.39356E-07  2744   0.596E-03    0.895E-04
DAV:  13    -0.946698904526E+02   -0.28773E-05   -0.30210E-07  2648   0.451E-03    0.722E-04
DAV:  14    -0.946698936739E+02   -0.32212E-05   -0.36612E-07  2798   0.387E-03    0.425E-04
DAV:  15    -0.946698951569E+02   -0.14831E-05   -0.19974E-07  2768   0.240E-03    0.428E-04
DAV:  16    -0.946698960274E+02   -0.87044E-06   -0.10180E-07  2624   0.245E-03
   6 F= -.94669896E+02 E0= -.94632331E+02  d E =-.168772E+00
       N       E                     dE             d eps       ncg     rms          rms(c)
DAV:   1    -0.947560517990E+02   -0.86157E-01   -0.21870E+02  4358   0.316E+01    0.163E+00
DAV:   2    -0.952483749796E+02   -0.49232E+00   -0.51955E+00  6624   0.126E+01    0.177E+00
DAV:   3    -0.952175906720E+02    0.30784E-01   -0.17681E-01  5528   0.708E+00    0.932E-01
DAV:   4    -0.952207875494E+02   -0.31969E-02   -0.83044E-02  6623   0.448E+00    0.767E-01
DAV:   5    -0.952216003242E+02   -0.81277E-03   -0.13850E-01  5615   0.631E+00    0.698E-01
DAV:   6    -0.952108608433E+02    0.10739E-01   -0.59371E-02  7198   0.390E+00    0.229E-01
DAV:   7    -0.952113849039E+02   -0.52406E-03   -0.14018E-02  6791   0.122E+00    0.121E-01
DAV:   8    -0.952113304326E+02    0.54471E-04   -0.39972E-03  5320   0.592E-01    0.905E-02
DAV:   9    -0.952112924270E+02    0.38006E-04   -0.12127E-03  5440   0.424E-01    0.495E-02
DAV:  10    -0.952112632609E+02    0.29166E-04   -0.26332E-04  6888   0.223E-01    0.186E-02
DAV:  11    -0.952112652381E+02   -0.19772E-05   -0.95947E-05  6488   0.961E-02    0.126E-02
DAV:  12    -0.952112652207E+02    0.17346E-07   -0.27508E-05  4552   0.766E-02    0.701E-03
DAV:  13    -0.952112656304E+02   -0.40972E-06   -0.65060E-06  3984   0.395E-02
   7 F= -.95211266E+02 E0= -.95174886E+02  d E =-.541370E+00
       N       E                     dE             d eps       ncg     rms          rms(c)
DAV:   1    -0.931673163996E+02    0.20439E+01   -0.94183E+02  4384   0.699E+01    0.365E+00
DAV:   2    -0.957949228470E+02   -0.26276E+01   -0.27343E+01  6624   0.298E+01    0.381E+00
DAV:   3    -0.956554551061E+02    0.13947E+00   -0.95973E-01  5568   0.183E+01    0.200E+00
DAV:   4    -0.956638219164E+02   -0.83668E-02   -0.34702E-01  6071   0.858E+00    0.171E+00
DAV:   5    -0.956657075856E+02   -0.18857E-02   -0.33413E-01  5575   0.946E+00    0.155E+00
DAV:   6    -0.956338584232E+02    0.31849E-01   -0.14967E-01  6119   0.595E+00    0.706E-01
DAV:   7    -0.956341540715E+02   -0.29565E-03   -0.67896E-02  6439   0.233E+00    0.207E-01
DAV:   8    -0.956351807934E+02   -0.10267E-02   -0.17419E-02  5376   0.137E+00    0.183E-01
DAV:   9    -0.956350472115E+02    0.13358E-03   -0.30537E-03  5064   0.728E-01    0.121E-01
DAV:  10    -0.956349272993E+02    0.11991E-03   -0.15581E-03  6400   0.560E-01    0.583E-02
DAV:  11    -0.956349224041E+02    0.48952E-05   -0.45828E-04  6351   0.311E-01    0.366E-02
DAV:  12    -0.956349109974E+02    0.11407E-04   -0.16799E-04  5392   0.200E-01    0.130E-02
DAV:  13    -0.956349164200E+02   -0.54226E-05   -0.41806E-05  5280   0.570E-02    0.949E-03
DAV:  14    -0.956349197115E+02   -0.32915E-05   -0.10659E-05  4224   0.366E-02    0.553E-03
DAV:  15    -0.956349218957E+02   -0.21842E-05   -0.35959E-06  3712   0.302E-02    0.309E-03
DAV:  16    -0.956349237911E+02   -0.18954E-05   -0.10287E-06  2776   0.129E-02    0.169E-03
DAV:  17    -0.956349261634E+02   -0.23723E-05   -0.70713E-07  2760   0.851E-03    0.712E-04
DAV:  18    -0.956349275602E+02   -0.13969E-05   -0.26551E-07  2664   0.460E-03    0.706E-04
DAV:  19    -0.956349289902E+02   -0.14300E-05   -0.19069E-07  2712   0.398E-03    0.403E-04
DAV:  20    -0.956349312058E+02   -0.22156E-05   -0.17708E-07  2680   0.203E-03    0.376E-04
DAV:  21    -0.956349321641E+02   -0.95833E-06   -0.10197E-07  2736   0.252E-03
   8 F= -.95634932E+02 E0= -.95601106E+02  d E =-.965036E+00
       N       E                     dE             d eps       ncg     rms          rms(c)
DAV:   1    -0.955890445274E+02    0.45887E-01   -0.15057E+02  4349   0.260E+01    0.125E+00
DAV:   2    -0.958929183693E+02   -0.30387E+00   -0.32547E+00  6648   0.964E+00    0.142E+00
DAV:   3    -0.958732835195E+02    0.19635E-01   -0.12047E-01  5536   0.524E+00    0.719E-01
DAV:   4    -0.958760062560E+02   -0.27227E-02   -0.63756E-02  6614   0.402E+00    0.657E-01
DAV:   5    -0.958711776632E+02    0.48286E-02   -0.70587E-02  5844   0.434E+00    0.422E-01
DAV:   6    -0.958687974815E+02    0.23802E-02   -0.30894E-02  7699   0.223E+00    0.185E-01
DAV:   7    -0.958688379289E+02   -0.40447E-04   -0.71101E-03  5568   0.121E+00    0.102E-01
DAV:   8    -0.958688244531E+02    0.13476E-04   -0.31688E-03  4942   0.588E-01    0.780E-02
DAV:   9    -0.958687574222E+02    0.67031E-04   -0.73270E-04  5528   0.297E-01    0.295E-02
DAV:  10    -0.958687511453E+02    0.62769E-05   -0.15515E-04  5936   0.191E-01    0.162E-02
DAV:  11    -0.958687518812E+02   -0.73586E-06   -0.55985E-05  6247   0.101E-01    0.839E-03
DAV:  12    -0.958687535089E+02   -0.16277E-05   -0.21369E-05  4254   0.472E-02    0.434E-03
DAV:  13    -0.958687542686E+02   -0.75967E-06   -0.55927E-06  3864   0.306E-02
   9 F= -.95868754E+02 E0= -.95835303E+02  d E =-.233822E+00
       N       E                     dE             d eps       ncg     rms          rms(c)
DAV:   1    -0.956540497860E+02    0.21470E+00   -0.15525E+02  4349   0.264E+01    0.122E+00
DAV:   2    -0.959682429815E+02   -0.31419E+00   -0.33622E+00  6648   0.979E+00    0.140E+00
DAV:   3    -0.959485350990E+02    0.19708E-01   -0.12591E-01  5543   0.545E+00    0.687E-01
DAV:   4    -0.959498263108E+02   -0.12912E-02   -0.57497E-02  6693   0.372E+00    0.619E-01
DAV:   5    -0.959459203731E+02    0.39059E-02   -0.55964E-02  6396   0.376E+00    0.407E-01
DAV:   6    -0.959439255252E+02    0.19948E-02   -0.26506E-02  7660   0.201E+00    0.186E-01
DAV:   7    -0.959439235486E+02    0.19766E-05   -0.64852E-03  5528   0.121E+00    0.927E-02
DAV:   8    -0.959439577356E+02   -0.34187E-04   -0.28757E-03  4959   0.584E-01    0.740E-02
DAV:   9    -0.959438975464E+02    0.60189E-04   -0.64442E-04  5424   0.284E-01    0.290E-02
DAV:  10    -0.959438923130E+02    0.52335E-05   -0.14333E-04  5728   0.185E-01    0.162E-02
DAV:  11    -0.959438935348E+02   -0.12218E-05   -0.50655E-05  6143   0.965E-02    0.776E-03
DAV:  12    -0.959438959254E+02   -0.23905E-05   -0.21028E-05  4214   0.441E-02    0.437E-03
DAV:  13    -0.959438968814E+02   -0.95600E-06   -0.51936E-06  3912   0.292E-02
  10 F= -.95943897E+02 E0= -.95910962E+02  d E =-.308965E+00
       N       E                     dE             d eps       ncg     rms          rms(c)
DAV:   1    -0.958908340269E+02    0.53062E-01   -0.87233E+01  4349   0.194E+01    0.111E+00
DAV:   2    -0.960785518248E+02   -0.18772E+00   -0.20419E+00  6582   0.846E+00    0.128E+00
DAV:   3    -0.960606730607E+02    0.17879E-01   -0.98047E-02  5408   0.485E+00    0.614E-01
DAV:   4    -0.960597530929E+02    0.91997E-03   -0.24074E-02  6216   0.176E+00    0.433E-01
DAV:   5    -0.960600265348E+02   -0.27344E-03   -0.19417E-02  5560   0.230E+00    0.287E-01
DAV:   6    -0.960613904401E+02   -0.13639E-02   -0.31174E-02  6372   0.297E+00    0.283E-01
DAV:   7    -0.960586864291E+02    0.27040E-02   -0.12433E-02  6021   0.195E+00    0.474E-02
DAV:   8    -0.960588941211E+02   -0.20769E-03   -0.20092E-03  6639   0.349E-01    0.499E-02
DAV:   9    -0.960589310494E+02   -0.36928E-04   -0.50311E-04  4936   0.247E-01    0.332E-02
DAV:  10    -0.960589535633E+02   -0.22514E-04   -0.91223E-05  5503   0.104E-01    0.139E-02
DAV:  11    -0.960590018118E+02   -0.48249E-04   -0.34013E-05  6182   0.572E-02    0.835E-03
DAV:  12    -0.960590158017E+02   -0.13990E-04   -0.11742E-05  4400   0.515E-02    0.405E-03
DAV:  13    -0.960590299569E+02   -0.14155E-04   -0.28950E-06  3440   0.170E-02    0.230E-03
DAV:  14    -0.960590502980E+02   -0.20341E-04   -0.19122E-06  2878   0.124E-02    0.190E-03
DAV:  15    -0.960590590785E+02   -0.87805E-05   -0.10007E-06  3024   0.944E-03    0.138E-03
DAV:  16    -0.960590707300E+02   -0.11651E-04   -0.12726E-06  2854   0.857E-03    0.963E-04
DAV:  17    -0.960590816746E+02   -0.10945E-04   -0.12614E-06  2920   0.575E-03    0.837E-04
DAV:  18    -0.960590874148E+02   -0.57402E-05   -0.78443E-07  2966   0.501E-03    0.774E-04
DAV:  19    -0.960590893902E+02   -0.19754E-05   -0.35787E-07  2832   0.408E-03    0.293E-04
DAV:  20    -0.960590913940E+02   -0.20038E-05   -0.25446E-07  2672   0.221E-03    0.402E-04
DAV:  21    -0.960590921376E+02   -0.74360E-06   -0.11664E-07  2720   0.224E-03
  11 F= -.96059092E+02 E0= -.96026530E+02  d E =-.115195E+00
       N       E                     dE             d eps       ncg     rms          rms(c)
DAV:   1    -0.958996825076E+02    0.15941E+00   -0.10127E+02  4350   0.210E+01    0.122E+00
DAV:   2    -0.961250213926E+02   -0.22534E+00   -0.24473E+00  6558   0.937E+00    0.141E+00
DAV:   3    -0.961022248276E+02    0.22797E-01   -0.12295E-01  5430   0.543E+00    0.653E-01
DAV:   4    -0.961012208287E+02    0.10040E-02   -0.28055E-02  6208   0.179E+00    0.456E-01
DAV:   5    -0.961005883153E+02    0.63251E-03   -0.14825E-02  5542   0.196E+00    0.269E-01
DAV:   6    -0.961018833719E+02   -0.12951E-02   -0.16693E-02  6607   0.209E+00    0.231E-01
DAV:   7    -0.961001827618E+02    0.17006E-02   -0.12169E-02  5615   0.187E+00    0.732E-02
DAV:   8    -0.961002530304E+02   -0.70269E-04   -0.17887E-03  6776   0.468E-01    0.460E-02
DAV:   9    -0.961003090265E+02   -0.55996E-04   -0.58098E-04  5272   0.249E-01    0.354E-02
DAV:  10    -0.961003372775E+02   -0.28251E-04   -0.12983E-04  5376   0.117E-01    0.160E-02
DAV:  11    -0.961003866522E+02   -0.49375E-04   -0.42415E-05  6070   0.582E-02    0.946E-03
DAV:  12    -0.961004104441E+02   -0.23792E-04   -0.14470E-05  4672   0.551E-02    0.549E-03
DAV:  13    -0.961004265263E+02   -0.16082E-04   -0.38595E-06  3816   0.270E-02    0.296E-03
DAV:  14    -0.961004453627E+02   -0.18836E-04   -0.19384E-06  2992   0.129E-02    0.163E-03
DAV:  15    -0.961004566909E+02   -0.11328E-04   -0.12996E-06  2968   0.105E-02    0.146E-03
DAV:  16    -0.961004671062E+02   -0.10415E-04   -0.11572E-06  2928   0.766E-03    0.886E-04
DAV:  17    -0.961004817430E+02   -0.14637E-04   -0.17304E-06  3000   0.639E-03    0.106E-03
DAV:  18    -0.961004863373E+02   -0.45943E-05   -0.67366E-07  2960   0.646E-03    0.776E-04
DAV:  19    -0.961004905555E+02   -0.42181E-05   -0.53554E-07  2792   0.399E-03    0.405E-04
DAV:  20    -0.961004926256E+02   -0.20701E-05   -0.31027E-07  2800   0.276E-03    0.396E-04
DAV:  21    -0.961004934517E+02   -0.82614E-06   -0.14192E-07  2640   0.236E-03
  12 F= -.96100493E+02 E0= -.96068353E+02  d E =-.156597E+00
       N       E                     dE             d eps       ncg     rms          rms(c)
DAV:   1    -0.961196775266E+02   -0.19185E-01   -0.27083E+00  4348   0.343E+00    0.188E-01
DAV:   2    -0.961243855821E+02   -0.47081E-02   -0.49526E-02  6624   0.126E+00    0.169E-01
DAV:   3    -0.961242419599E+02    0.14362E-03   -0.37189E-03  4936   0.104E+00    0.111E-01
DAV:   4    -0.961242228143E+02    0.19146E-04   -0.19402E-03  5671   0.740E-01    0.849E-02
DAV:   5    -0.961241374937E+02    0.85321E-04   -0.14457E-03  5967   0.633E-01    0.553E-02
DAV:   6    -0.961240791315E+02    0.58362E-04   -0.49991E-04  6536   0.321E-01    0.164E-02
DAV:   7    -0.961240862523E+02   -0.71208E-05   -0.12267E-04  6415   0.113E-01    0.114E-02
DAV:   8    -0.961240876214E+02   -0.13691E-05   -0.32904E-05  4912   0.705E-02    0.757E-03
DAV:   9    -0.961240889544E+02   -0.13330E-05   -0.73083E-06  4239   0.341E-02    0.392E-03
DAV:  10    -0.961240911761E+02   -0.22217E-05   -0.25298E-06  3007   0.200E-02    0.201E-03
DAV:  11    -0.961240928664E+02   -0.16903E-05   -0.12931E-06  2832   0.128E-02    0.127E-03
DAV:  12    -0.961240939858E+02   -0.11194E-05   -0.68976E-07  2608   0.876E-03    0.887E-04
DAV:  13    -0.961240954564E+02   -0.14707E-05   -0.42864E-07  2687   0.477E-03    0.670E-04
DAV:  14    -0.961240969816E+02   -0.15252E-05   -0.24186E-07  2679   0.357E-03    0.530E-04
DAV:  15    -0.961240981866E+02   -0.12050E-05   -0.18429E-07  2656   0.339E-03    0.380E-04
DAV:  16    -0.961240991746E+02   -0.98808E-06   -0.12838E-07  2656   0.220E-03
  13 F= -.96124099E+02 E0= -.96091938E+02  d E =-.236057E-01
       N       E                     dE             d eps       ncg     rms          rms(c)
DAV:   1    -0.961293357442E+02   -0.52376E-02   -0.24368E+01  4340   0.103E+01    0.598E-01
DAV:   2    -0.961773093145E+02   -0.47974E-01   -0.50887E-01  6630   0.432E+00    0.594E-01
DAV:   3    -0.961745518983E+02    0.27574E-02   -0.39045E-02  5071   0.343E+00    0.337E-01
DAV:   4    -0.961745283228E+02    0.23575E-04   -0.19505E-02  6093   0.230E+00    0.275E-01
DAV:   5    -0.961734746011E+02    0.10537E-02   -0.13612E-02  6523   0.186E+00    0.164E-01
DAV:   6    -0.961730696996E+02    0.40490E-03   -0.44766E-03  6424   0.925E-01    0.629E-02
DAV:   7    -0.961731155291E+02   -0.45830E-04   -0.11483E-03  5752   0.393E-01    0.346E-02
DAV:   8    -0.961731303370E+02   -0.14808E-04   -0.40312E-04  5024   0.236E-01    0.273E-02
DAV:   9    -0.961731367073E+02   -0.63704E-05   -0.94982E-05  5310   0.125E-01    0.144E-02
DAV:  10    -0.961731453263E+02   -0.86189E-05   -0.25991E-05  4717   0.708E-02    0.715E-03
DAV:  11    -0.961731596527E+02   -0.14326E-04   -0.10614E-05  5416   0.228E-02    0.343E-03
DAV:  12    -0.961731704011E+02   -0.10748E-04   -0.24286E-06  3336   0.181E-02    0.242E-03
DAV:  13    -0.961731768967E+02   -0.64956E-05   -0.10113E-06  2814   0.149E-02    0.164E-03
DAV:  14    -0.961731888118E+02   -0.11915E-04   -0.10403E-06  2832   0.767E-03    0.103E-03
DAV:  15    -0.961731969604E+02   -0.81485E-05   -0.69147E-07  2910   0.579E-03    0.108E-03
DAV:  16    -0.961732023641E+02   -0.54037E-05   -0.42660E-07  2760   0.622E-03    0.812E-04
DAV:  17    -0.961732105705E+02   -0.82064E-05   -0.68593E-07  2830   0.504E-03    0.721E-04
DAV:  18    -0.961732131945E+02   -0.26241E-05   -0.34719E-07  2856   0.388E-03    0.523E-04
DAV:  19    -0.961732142635E+02   -0.10689E-05   -0.14914E-07  2656   0.240E-03    0.342E-04
DAV:  20    -0.961732164315E+02   -0.21680E-05   -0.13500E-07  2671   0.207E-03    0.320E-04
DAV:  21    -0.961732170234E+02   -0.59197E-06   -0.64149E-08  2728   0.162E-03
  14 F= -.96173217E+02 E0= -.96141010E+02  d E =-.727236E-01
       N       E                     dE             d eps       ncg     rms          rms(c)
DAV:   1    -0.959644278931E+02    0.20879E+00   -0.97618E+01  4340   0.206E+01    0.125E+00
DAV:   2    -0.961862212357E+02   -0.22179E+00   -0.23469E+00  6647   0.927E+00    0.124E+00
DAV:   3    -0.961727278259E+02    0.13493E-01   -0.16021E-01  5264   0.721E+00    0.693E-01
DAV:   4    -0.961717827105E+02    0.94512E-03   -0.83933E-02  6320   0.473E+00    0.569E-01
DAV:   5    -0.961668839841E+02    0.48987E-02   -0.53386E-02  6863   0.362E+00    0.327E-01
DAV:   6    -0.961656236480E+02    0.12603E-02   -0.17088E-02  6336   0.176E+00    0.138E-01
DAV:   7    -0.961657597314E+02   -0.13608E-03   -0.45614E-03  5576   0.852E-01    0.693E-02
DAV:   8    -0.961658178912E+02   -0.58160E-04   -0.17192E-03  4984   0.487E-01    0.543E-02
DAV:   9    -0.961658371463E+02   -0.19255E-04   -0.42947E-04  5224   0.267E-01    0.304E-02
DAV:  10    -0.961658529333E+02   -0.15787E-04   -0.10300E-04  5344   0.148E-01    0.143E-02
DAV:  11    -0.961658968600E+02   -0.43927E-04   -0.42592E-05  6288   0.482E-02    0.761E-03
DAV:  12    -0.961659232214E+02   -0.26361E-04   -0.10679E-05  4280   0.451E-02    0.547E-03
DAV:  13    -0.961659428600E+02   -0.19639E-04   -0.50350E-06  4032   0.336E-02    0.321E-03
DAV:  14    -0.961659751752E+02   -0.32315E-04   -0.27493E-06  2920   0.128E-02    0.206E-03
DAV:  15    -0.961659992595E+02   -0.24084E-04   -0.16388E-06  2984   0.126E-02    0.188E-03
DAV:  16    -0.961660136741E+02   -0.14415E-04   -0.10517E-06  2968   0.109E-02    0.139E-03
DAV:  17    -0.961660384688E+02   -0.24795E-04   -0.20909E-06  3015   0.775E-03    0.112E-03
DAV:  18    -0.961660446516E+02   -0.61828E-05   -0.73834E-07  2920   0.604E-03    0.976E-04
DAV:  19    -0.961660505086E+02   -0.58570E-05   -0.47475E-07  2718   0.527E-03    0.772E-04
DAV:  20    -0.961660548827E+02   -0.43741E-05   -0.37143E-07  2776   0.402E-03    0.473E-04
DAV:  21    -0.961660563903E+02   -0.15076E-05   -0.17433E-07  2752   0.223E-03    0.419E-04
DAV:  22    -0.961660571325E+02   -0.74221E-06   -0.85566E-08  2600   0.198E-03
  15 F= -.96166057E+02 E0= -.96133859E+02  d E =-.655637E-01
       N       E                     dE             d eps       ncg     rms          rms(c)
DAV:   1    -0.961355836905E+02    0.30473E-01   -0.30415E+01  4349   0.113E+01    0.677E-01
DAV:   2    -0.961914530668E+02   -0.55869E-01   -0.60431E-01  6624   0.363E+00    0.546E-01
DAV:   3    -0.961887873220E+02    0.26657E-02   -0.27601E-02  5304   0.252E+00    0.339E-01
DAV:   4    -0.961883780340E+02    0.40929E-03   -0.96470E-03  5624   0.175E+00    0.236E-01
DAV:   5    -0.961891079767E+02   -0.72994E-03   -0.12553E-02  5869   0.195E+00    0.211E-01
DAV:   6    -0.961881626002E+02    0.94538E-03   -0.10941E-02  6182   0.179E+00    0.105E-01
DAV:   7    -0.961879131710E+02    0.24943E-03   -0.22087E-03  7128   0.671E-01    0.384E-02
DAV:   8    -0.961879441734E+02   -0.31002E-04   -0.45684E-04  6192   0.225E-01    0.286E-02
DAV:   9    -0.961879601739E+02   -0.16001E-04   -0.13387E-04  4960   0.126E-01    0.170E-02
DAV:  10    -0.961879900414E+02   -0.29868E-04   -0.38476E-05  5886   0.671E-02    0.652E-03
DAV:  11    -0.961880142799E+02   -0.24238E-04   -0.10996E-05  4672   0.326E-02    0.460E-03
DAV:  12    -0.961880270657E+02   -0.12786E-04   -0.44550E-06  4144   0.277E-02    0.278E-03
DAV:  13    -0.961880374422E+02   -0.10377E-04   -0.13357E-06  2928   0.137E-02    0.172E-03
DAV:  14    -0.961880565308E+02   -0.19089E-04   -0.20071E-06  2934   0.829E-03    0.142E-03
DAV:  15    -0.961880680302E+02   -0.11499E-04   -0.10805E-06  2992   0.802E-03    0.117E-03
DAV:  16    -0.961880769105E+02   -0.88803E-05   -0.92256E-07  2864   0.712E-03    0.862E-04
DAV:  17    -0.961880831272E+02   -0.62167E-05   -0.83398E-07  2968   0.516E-03    0.697E-04
DAV:  18    -0.961880866574E+02   -0.35302E-05   -0.48259E-07  2760   0.430E-03    0.572E-04
DAV:  19    -0.961880884706E+02   -0.18132E-05   -0.29052E-07  2808   0.334E-03    0.341E-04
DAV:  20    -0.961880898628E+02   -0.13922E-05   -0.16326E-07  2656   0.224E-03    0.313E-04
DAV:  21    -0.961880904975E+02   -0.63464E-06   -0.83114E-08  2688   0.179E-03
  16 F= -.96188090E+02 E0= -.96155870E+02  d E =-.875970E-01
       N       E                     dE             d eps       ncg     rms          rms(c)
DAV:   1    -0.961923261749E+02   -0.42363E-02   -0.97331E-02  4405   0.646E-01    0.312E-02
DAV:   2    -0.961924716615E+02   -0.14549E-03   -0.15114E-03  6600   0.204E-01    0.258E-02
DAV:   3    -0.961924687617E+02    0.28998E-05   -0.80431E-05  5176   0.139E-01    0.165E-02
DAV:   4    -0.961924671090E+02    0.16527E-05   -0.15844E-05  4896   0.651E-02    0.982E-03
DAV:   5    -0.961924684073E+02   -0.12983E-05   -0.13867E-05  3992   0.533E-02    0.729E-03
DAV:   6    -0.961924673583E+02    0.10490E-05   -0.18464E-05  3767   0.710E-02    0.493E-03
DAV:   7    -0.961924665650E+02    0.79331E-06   -0.37831E-06  2640   0.354E-02
  17 F= -.96192467E+02 E0= -.96160263E+02  d E =-.437607E-02
       N       E                     dE             d eps       ncg     rms          rms(c)
DAV:   1    -0.962034564877E+02   -0.10989E-01   -0.87619E-01  4354   0.194E+00    0.939E-02
DAV:   2    -0.962047912512E+02   -0.13348E-02   -0.13883E-02  6558   0.619E-01    0.799E-02
DAV:   3    -0.962047610591E+02    0.30192E-04   -0.73854E-04  5094   0.418E-01    0.492E-02
DAV:   4    -0.962047561169E+02    0.49422E-05   -0.20829E-04  5455   0.243E-01    0.332E-02
DAV:   5    -0.962047887403E+02   -0.32623E-04   -0.40447E-04  5565   0.331E-01    0.377E-02
DAV:   6    -0.962047426512E+02    0.46089E-04   -0.21530E-04  6354   0.254E-01    0.827E-03
DAV:   7    -0.962047437783E+02   -0.11271E-05   -0.31057E-05  6735   0.559E-02    0.502E-03
DAV:   8    -0.962047440441E+02   -0.26572E-06   -0.75913E-06  4136   0.232E-02
  18 F= -.96204744E+02 E0= -.96172595E+02  d E =-.166535E-01
       N       E                     dE             d eps       ncg     rms          rms(c)
DAV:   1    -0.962200797274E+02   -0.15336E-01   -0.35032E+00  4342   0.387E+00    0.192E-01
DAV:   2    -0.962256322365E+02   -0.55525E-02   -0.58014E-02  6574   0.134E+00    0.179E-01
DAV:   3    -0.962254099973E+02    0.22224E-03   -0.32887E-03  5095   0.896E-01    0.975E-02
DAV:   4    -0.962254217867E+02   -0.11789E-04   -0.10210E-03  5543   0.519E-01    0.734E-02
DAV:   5    -0.962254830144E+02   -0.61228E-04   -0.16527E-03  5548   0.671E-01    0.711E-02
DAV:   6    -0.962253422313E+02    0.14078E-03   -0.74915E-04  6321   0.475E-01    0.206E-02
DAV:   7    -0.962253458120E+02   -0.35808E-05   -0.13959E-04  6783   0.134E-01    0.106E-02
DAV:   8    -0.962253468329E+02   -0.10208E-05   -0.36935E-05  4824   0.496E-02    0.804E-03
DAV:   9    -0.962253467219E+02    0.11100E-06   -0.80961E-06  3944   0.364E-02
  19 F= -.96225347E+02 E0= -.96193304E+02  d E =-.372562E-01
       N       E                     dE             d eps       ncg     rms          rms(c)
DAV:   1    -0.962285842581E+02   -0.32374E-02   -0.14012E+01  4341   0.776E+00    0.397E-01
DAV:   2    -0.962529866302E+02   -0.24402E-01   -0.25715E-01  6599   0.295E+00    0.411E-01
DAV:   3    -0.962514146898E+02    0.15719E-02   -0.14781E-02  5167   0.194E+00    0.200E-01
DAV:   4    -0.962515801291E+02   -0.16544E-03   -0.51907E-03  6207   0.113E+00    0.166E-01
DAV:   5    -0.962515421572E+02    0.37972E-04   -0.66652E-03  5508   0.135E+00    0.134E-01
DAV:   6    -0.962511391031E+02    0.40305E-03   -0.26031E-03  6436   0.858E-01    0.480E-02
DAV:   7    -0.962511584930E+02   -0.19390E-04   -0.65850E-04  6816   0.301E-01    0.239E-02
DAV:   8    -0.962511616726E+02   -0.31796E-05   -0.18557E-04  4840   0.123E-01    0.194E-02
DAV:   9    -0.962511607487E+02    0.92393E-06   -0.48585E-05  5360   0.860E-02    0.111E-02
DAV:  10    -0.962511603087E+02    0.43999E-06   -0.11832E-05  4638   0.480E-02    0.433E-03
DAV:  11    -0.962511614375E+02   -0.11288E-05   -0.51006E-06  4136   0.144E-02    0.196E-03
DAV:  12    -0.962511624084E+02   -0.97090E-06   -0.11789E-06  2728   0.152E-02
  20 F= -.96251162E+02 E0= -.96219341E+02  d E =-.630719E-01
       N       E                     dE             d eps       ncg     rms          rms(c)
DAV:   1    -0.961386862714E+02    0.11248E+00   -0.56114E+01  4341   0.156E+01    0.829E-01
DAV:   2    -0.962524264213E+02   -0.11374E+00   -0.12018E+00  6590   0.648E+00    0.886E-01
DAV:   3    -0.962440209155E+02    0.84055E-02   -0.62483E-02  5343   0.420E+00    0.419E-01
DAV:   4    -0.962447415803E+02   -0.72066E-03   -0.25761E-02  6599   0.250E+00    0.365E-01
DAV:   5    -0.962435390250E+02    0.12026E-02   -0.24820E-02  5780   0.255E+00    0.250E-01
DAV:   6    -0.962425615249E+02    0.97750E-03   -0.89298E-03  6374   0.149E+00    0.108E-01
DAV:   7    -0.962426306442E+02   -0.69119E-04   -0.27506E-03  6080   0.676E-01    0.492E-02
DAV:   8    -0.962426595520E+02   -0.28908E-04   -0.10438E-03  4928   0.320E-01    0.427E-02
DAV:   9    -0.962426541109E+02    0.54410E-05   -0.23541E-04  5360   0.184E-01    0.241E-02
DAV:  10    -0.962426499543E+02    0.41566E-05   -0.51308E-05  5558   0.103E-01    0.110E-02
DAV:  11    -0.962426534287E+02   -0.34744E-05   -0.17899E-05  6287   0.340E-02    0.440E-03
DAV:  12    -0.962426566082E+02   -0.31795E-05   -0.46134E-06  3928   0.302E-02    0.368E-03
DAV:  13    -0.962426588363E+02   -0.22281E-05   -0.24207E-06  3280   0.222E-02    0.163E-03
DAV:  14    -0.962426618016E+02   -0.29653E-05   -0.63791E-07  2750   0.782E-03    0.884E-04
DAV:  15    -0.962426632736E+02   -0.14720E-05   -0.33323E-07  2720   0.578E-03    0.808E-04
DAV:  16    -0.962426661726E+02   -0.28990E-05   -0.30650E-07  2662   0.452E-03    0.571E-04
DAV:  17    -0.962426682117E+02   -0.20391E-05   -0.19685E-07  2752   0.267E-03    0.384E-04
DAV:  18    -0.962426693371E+02   -0.11254E-05   -0.11956E-07  2710   0.205E-03    0.332E-04
DAV:  19    -0.962426700731E+02   -0.73598E-06   -0.67868E-08  2632   0.199E-03
  21 F= -.96242670E+02 E0= -.96211280E+02  d E =-.545796E-01
       N       E                     dE             d eps       ncg     rms          rms(c)
DAV:   1    -0.962249811034E+02    0.17688E-01   -0.20153E+01  4341   0.930E+00    0.470E-01
DAV:   2    -0.962588292608E+02   -0.33848E-01   -0.35989E-01  6557   0.320E+00    0.429E-01
DAV:   3    -0.962575356813E+02    0.12936E-02   -0.20554E-02  5312   0.223E+00    0.241E-01
DAV:   4    -0.962575493871E+02   -0.13706E-04   -0.75831E-03  5733   0.147E+00    0.199E-01
DAV:   5    -0.962575422060E+02    0.71810E-05   -0.76319E-03  5734   0.147E+00    0.152E-01
DAV:   6    -0.962570372557E+02    0.50495E-03   -0.37641E-03  6916   0.978E-01    0.558E-02
DAV:   7    -0.962570700900E+02   -0.32834E-04   -0.97333E-04  6648   0.339E-01    0.346E-02
DAV:   8    -0.962570673013E+02    0.27887E-05   -0.22350E-04  5248   0.189E-01    0.215E-02
DAV:   9    -0.962570647924E+02    0.25089E-05   -0.62525E-05  5256   0.859E-02    0.110E-02
DAV:  10    -0.962570652477E+02   -0.45536E-06   -0.17183E-05  6008   0.417E-02    0.438E-03
DAV:  11    -0.962570669974E+02   -0.17497E-05   -0.56931E-06  4168   0.240E-02    0.310E-03
DAV:  12    -0.962570681525E+02   -0.11551E-05   -0.17728E-06  2824   0.205E-02    0.206E-03
DAV:  13    -0.962570689063E+02   -0.75379E-06   -0.52821E-07  2736   0.106E-02
  22 F= -.96257069E+02 E0= -.96225422E+02  d E =-.689784E-01
       N       E                     dE             d eps       ncg     rms          rms(c)
DAV:   1    -0.962636100292E+02   -0.65419E-02   -0.56323E-01  4343   0.155E+00    0.139E-01
DAV:   2    -0.962647120661E+02   -0.11020E-02   -0.13623E-02  6443   0.593E-01    0.126E-01
DAV:   3    -0.962645991109E+02    0.11296E-03   -0.18485E-03  5055   0.625E-01    0.872E-02
DAV:   4    -0.962645929158E+02    0.61951E-05   -0.15487E-03  5303   0.700E-01    0.759E-02
DAV:   5    -0.962644497161E+02    0.14320E-03   -0.83170E-04  5943   0.492E-01    0.283E-02
DAV:   6    -0.962644327228E+02    0.16993E-04   -0.18474E-04  6816   0.195E-01    0.123E-02
DAV:   7    -0.962644371298E+02   -0.44070E-05   -0.44668E-05  5944   0.832E-02    0.712E-03
DAV:   8    -0.962644420429E+02   -0.49130E-05   -0.11104E-05  4464   0.306E-02    0.492E-03
DAV:   9    -0.962644483298E+02   -0.62870E-05   -0.34347E-06  3902   0.257E-02    0.328E-03
DAV:  10    -0.962644552288E+02   -0.68989E-05   -0.12295E-06  2968   0.174E-02    0.134E-03
DAV:  11    -0.962644600112E+02   -0.47824E-05   -0.79976E-07  2928   0.817E-03    0.121E-03
DAV:  12    -0.962644632153E+02   -0.32042E-05   -0.55075E-07  2736   0.696E-03    0.101E-03
DAV:  13    -0.962644674234E+02   -0.42081E-05   -0.51047E-07  2792   0.493E-03    0.689E-04
DAV:  14    -0.962644719480E+02   -0.45245E-05   -0.51345E-07  2848   0.357E-03    0.460E-04
DAV:  15    -0.962644741687E+02   -0.22207E-05   -0.27558E-07  2784   0.349E-03    0.538E-04
DAV:  16    -0.962644753431E+02   -0.11744E-05   -0.16292E-07  2688   0.267E-03    0.302E-04
DAV:  17    -0.962644766336E+02   -0.12906E-05   -0.14027E-07  2648   0.184E-03    0.303E-04
DAV:  18    -0.962644773690E+02   -0.73534E-06   -0.86486E-08  2728   0.164E-03
  23 F= -.96264477E+02 E0= -.96232960E+02  d E =-.740846E-02
       N       E                     dE             d eps       ncg     rms          rms(c)
DAV:   1    -0.962662506255E+02   -0.17740E-02   -0.86263E-01  4346   0.193E+00    0.171E-01
DAV:   2    -0.962679699920E+02   -0.17194E-02   -0.21047E-02  6443   0.739E-01    0.157E-01
DAV:   3    -0.962677894038E+02    0.18059E-03   -0.29254E-03  5095   0.773E-01    0.108E-01
DAV:   4    -0.962677706662E+02    0.18738E-04   -0.22933E-03  5328   0.849E-01    0.921E-02
DAV:   5    -0.962675661749E+02    0.20449E-03   -0.12159E-03  6039   0.587E-01    0.352E-02
DAV:   6    -0.962675383092E+02    0.27866E-04   -0.28471E-04  6760   0.244E-01    0.158E-02
DAV:   7    -0.962675432554E+02   -0.49462E-05   -0.69218E-05  5968   0.106E-01    0.876E-03
DAV:   8    -0.962675495386E+02   -0.62832E-05   -0.17420E-05  4688   0.378E-02    0.601E-03
DAV:   9    -0.962675571916E+02   -0.76530E-05   -0.51497E-06  4078   0.316E-02    0.407E-03
DAV:  10    -0.962675656503E+02   -0.84587E-05   -0.17467E-06  3040   0.213E-02    0.163E-03
DAV:  11    -0.962675717881E+02   -0.61378E-05   -0.10938E-06  2928   0.974E-03    0.145E-03
DAV:  12    -0.962675757331E+02   -0.39450E-05   -0.75240E-07  2784   0.830E-03    0.119E-03
DAV:  13    -0.962675805700E+02   -0.48368E-05   -0.64662E-07  2840   0.580E-03    0.810E-04
DAV:  14    -0.962675861518E+02   -0.55818E-05   -0.64452E-07  2832   0.404E-03    0.535E-04
DAV:  15    -0.962675890790E+02   -0.29272E-05   -0.38341E-07  2816   0.414E-03    0.653E-04
DAV:  16    -0.962675905733E+02   -0.14944E-05   -0.22267E-07  2696   0.320E-03    0.351E-04
DAV:  17    -0.962675922926E+02   -0.17192E-05   -0.20281E-07  2664   0.212E-03    0.358E-04
DAV:  18    -0.962675933142E+02   -0.10217E-05   -0.12529E-07  2760   0.187E-03    0.220E-04
DAV:  19    -0.962675935937E+02   -0.27945E-06   -0.59444E-08  2672   0.141E-03
  24 F= -.96267594E+02 E0= -.96236236E+02  d E =-.105247E-01
       N       E                     dE             d eps       ncg     rms          rms(c)
DAV:   1    -0.962694483486E+02   -0.18550E-02   -0.72644E-02  4389   0.565E-01    0.299E-02
DAV:   2    -0.962695895120E+02   -0.14116E-03   -0.14613E-03  6488   0.177E-01    0.254E-02
DAV:   3    -0.962695888362E+02    0.67579E-06   -0.81233E-05  5112   0.129E-01    0.179E-02
DAV:   4    -0.962695879748E+02    0.86147E-06   -0.24466E-05  4680   0.881E-02    0.135E-02
DAV:   5    -0.962695909884E+02   -0.30136E-05   -0.40140E-05  4383   0.113E-01    0.134E-02
DAV:   6    -0.962695863651E+02    0.46233E-05   -0.23964E-05  3983   0.810E-02    0.299E-03
DAV:   7    -0.962695863616E+02    0.34925E-08   -0.46037E-06  3872   0.147E-02
  25 F= -.96269586E+02 E0= -.96238251E+02  d E =-.199277E-02
       N       E                     dE             d eps       ncg     rms          rms(c)
DAV:   1    -0.962740253760E+02   -0.44390E-02   -0.65406E-01  4343   0.170E+00    0.893E-02
DAV:   2    -0.962752981434E+02   -0.12728E-02   -0.13157E-02  6445   0.514E-01    0.747E-02
DAV:   3    -0.962752967550E+02    0.13884E-05   -0.73475E-04  5039   0.376E-01    0.536E-02
DAV:   4    -0.962752899200E+02    0.68350E-05   -0.24939E-04  5126   0.281E-01    0.412E-02
DAV:   5    -0.962753078855E+02   -0.17966E-04   -0.34677E-04  5531   0.332E-01    0.378E-02
DAV:   6    -0.962752740130E+02    0.33873E-04   -0.19525E-04  6649   0.229E-01    0.105E-02
DAV:   7    -0.962752737237E+02    0.28929E-06   -0.38190E-05  6379   0.467E-02    0.550E-03
DAV:   8    -0.962752738929E+02   -0.16915E-06   -0.70329E-06  4272   0.248E-02
  26 F= -.96275274E+02 E0= -.96244000E+02  d E =-.768030E-02
       N       E                     dE             d eps       ncg     rms          rms(c)
DAV:   1    -0.962802709183E+02   -0.49972E-02   -0.26169E+00  4342   0.339E+00    0.180E-01
DAV:   2    -0.962854198631E+02   -0.51489E-02   -0.53376E-02  6453   0.104E+00    0.154E-01
DAV:   3    -0.962853597875E+02    0.60076E-04   -0.27700E-03  5014   0.696E-01    0.103E-01
DAV:   4    -0.962853163961E+02    0.43391E-04   -0.51833E-04  5271   0.400E-01    0.734E-02
DAV:   5    -0.962853899641E+02   -0.73568E-04   -0.73730E-04  5782   0.510E-01    0.663E-02
DAV:   6    -0.962853265018E+02    0.63462E-04   -0.98752E-04  6018   0.550E-01    0.310E-02
DAV:   7    -0.962852906092E+02    0.35893E-04   -0.24307E-04  7319   0.200E-01    0.924E-03
DAV:   8    -0.962852933151E+02   -0.27060E-05   -0.41116E-05  5440   0.447E-02    0.789E-03
DAV:   9    -0.962852932134E+02    0.10169E-06   -0.56597E-06  4032   0.259E-02
  27 F= -.96285293E+02 E0= -.96254142E+02  d E =-.176996E-01
       N       E                     dE             d eps       ncg     rms          rms(c)
DAV:   1    -0.962793523459E+02    0.59410E-02   -0.10473E+01  4341   0.679E+00    0.364E-01
DAV:   2    -0.963010283286E+02   -0.21676E-01   -0.22593E-01  6453   0.217E+00    0.336E-01
DAV:   3    -0.963003802774E+02    0.64805E-03   -0.10708E-02  5143   0.135E+00    0.203E-01
DAV:   4    -0.963002607455E+02    0.11953E-03   -0.19545E-03  5462   0.737E-01    0.149E-01
DAV:   5    -0.963006853505E+02   -0.42461E-03   -0.38607E-03  5733   0.106E+00    0.134E-01
DAV:   6    -0.963002389153E+02    0.44644E-03   -0.43976E-03  6304   0.109E+00    0.681E-02
DAV:   7    -0.963001343392E+02    0.10458E-03   -0.82358E-04  7404   0.459E-01    0.201E-02
DAV:   8    -0.963001471996E+02   -0.12860E-04   -0.16868E-04  5920   0.925E-02    0.183E-02
DAV:   9    -0.963001461595E+02    0.10401E-05   -0.38429E-05  4784   0.755E-02    0.121E-02
DAV:  10    -0.963001450080E+02    0.11515E-05   -0.11049E-05  4592   0.406E-02    0.448E-03
DAV:  11    -0.963001454516E+02   -0.44360E-06   -0.49979E-06  4118   0.135E-02
  28 F= -.96300145E+02 E0= -.96269235E+02  d E =-.325519E-01
       N       E                     dE             d eps       ncg     rms          rms(c)
DAV:   1    -0.962184488226E+02    0.81696E-01   -0.41945E+01  4341   0.136E+01    0.752E-01
DAV:   2    -0.963149054750E+02   -0.96457E-01   -0.10097E+00  6454   0.477E+00    0.743E-01
DAV:   3    -0.963104378667E+02    0.44676E-02   -0.43757E-02  5239   0.301E+00    0.422E-01
DAV:   4    -0.963106206113E+02   -0.18274E-03   -0.14411E-02  5766   0.200E+00    0.354E-01
DAV:   5    -0.963114953758E+02   -0.87476E-03   -0.24378E-02  5501   0.261E+00    0.293E-01
DAV:   6    -0.963093048996E+02    0.21905E-02   -0.13247E-02  6916   0.184E+00    0.100E-01
DAV:   7    -0.963093390877E+02   -0.34188E-04   -0.29724E-03  6840   0.709E-01    0.527E-02
DAV:   8    -0.963093694901E+02   -0.30402E-04   -0.76899E-04  5112   0.264E-01    0.411E-02
DAV:   9    -0.963093636070E+02    0.58831E-05   -0.20893E-04  5119   0.169E-01    0.254E-02
DAV:  10    -0.963093579877E+02    0.56193E-05   -0.53609E-05  5655   0.100E-01    0.102E-02
DAV:  11    -0.963093595121E+02   -0.15244E-05   -0.22168E-05  5848   0.395E-02    0.538E-03
DAV:  12    -0.963093612067E+02   -0.16946E-05   -0.48803E-06  4183   0.312E-02    0.393E-03
DAV:  13    -0.963093622822E+02   -0.10754E-05   -0.16890E-06  2758   0.212E-02    0.161E-03
DAV:  14    -0.963093637243E+02   -0.14422E-05   -0.69181E-07  2670   0.838E-03    0.761E-04
DAV:  15    -0.963093647307E+02   -0.10064E-05   -0.42245E-07  2702   0.519E-03    0.782E-04
DAV:  16    -0.963093652895E+02   -0.55879E-06   -0.23124E-07  2592   0.410E-03
  29 F= -.96309365E+02 E0= -.96278889E+02  d E =-.417717E-01
       N       E                     dE             d eps       ncg     rms          rms(c)
DAV:   1    -0.963103132527E+02   -0.94852E-03   -0.29755E+00  4340   0.346E+00    0.233E-01
DAV:   2    -0.963167400419E+02   -0.64268E-02   -0.68248E-02  6335   0.966E-01    0.179E-01
DAV:   3    -0.963167893534E+02   -0.49312E-04   -0.45005E-03  5200   0.980E-01    0.147E-01
DAV:   4    -0.963166728810E+02    0.11647E-03   -0.32780E-03  5584   0.101E+00    0.111E-01
DAV:   5    -0.963165246265E+02    0.14825E-03   -0.20655E-03  5638   0.827E-01    0.806E-02
DAV:   6    -0.963163856432E+02    0.13898E-03   -0.63857E-04  6448   0.443E-01    0.174E-02
DAV:   7    -0.963163985417E+02   -0.12898E-04   -0.15294E-04  6408   0.768E-02    0.144E-02
DAV:   8    -0.963164011084E+02   -0.25667E-05   -0.28518E-05  4840   0.701E-02    0.910E-03
DAV:   9    -0.963164038938E+02   -0.27854E-05   -0.64395E-06  4208   0.402E-02    0.462E-03
DAV:  10    -0.963164088003E+02   -0.49065E-05   -0.33449E-06  3624   0.183E-02    0.256E-03
DAV:  11    -0.963164125493E+02   -0.37491E-05   -0.16624E-06  2848   0.171E-02    0.174E-03
DAV:  12    -0.963164148741E+02   -0.23248E-05   -0.68167E-07  2768   0.103E-02    0.125E-03
DAV:  13    -0.963164188643E+02   -0.39902E-05   -0.52646E-07  2808   0.544E-03    0.718E-04
DAV:  14    -0.963164221518E+02   -0.32875E-05   -0.37363E-07  2728   0.415E-03    0.780E-04
DAV:  15    -0.963164248867E+02   -0.27349E-05   -0.26187E-07  2680   0.406E-03    0.469E-04
DAV:  16    -0.963164265103E+02   -0.16236E-05   -0.17226E-07  2744   0.287E-03    0.449E-04
DAV:  17    -0.963164285723E+02   -0.20619E-05   -0.19581E-07  2648   0.215E-03    0.264E-04
DAV:  18    -0.963164293549E+02   -0.78266E-06   -0.94627E-08  2736   0.187E-03
  30 F= -.96316429E+02 E0= -.96285987E+02  d E =-.706407E-02
       N       E                     dE             d eps       ncg     rms          rms(c)
DAV:   1    -0.963152123253E+02    0.12162E-02   -0.11446E+00  4342   0.213E+00    0.145E-01
DAV:   2    -0.963176431705E+02   -0.24308E-02   -0.25917E-02  6316   0.603E-01    0.111E-01
DAV:   3    -0.963176503028E+02   -0.71324E-05   -0.16603E-03  5128   0.588E-01    0.901E-02
DAV:   4    -0.963176185889E+02    0.31714E-04   -0.11212E-03  5504   0.598E-01    0.686E-02
DAV:   5    -0.963175793603E+02    0.39229E-04   -0.91977E-04  5421   0.552E-01    0.541E-02
DAV:   6    -0.963175115772E+02    0.67783E-04   -0.30617E-04  6424   0.301E-01    0.114E-02
DAV:   7    -0.963175163023E+02   -0.47251E-05   -0.65785E-05  6336   0.490E-02    0.883E-03
DAV:   8    -0.963175172980E+02   -0.99570E-06   -0.10074E-05  4384   0.406E-02    0.555E-03
DAV:   9    -0.963175185353E+02   -0.12373E-05   -0.24422E-06  3272   0.249E-02    0.291E-03
DAV:  10    -0.963175206620E+02   -0.21267E-05   -0.14647E-06  2960   0.132E-02    0.159E-03
DAV:  11    -0.963175222946E+02   -0.16326E-05   -0.91432E-07  2728   0.109E-02    0.114E-03
DAV:  12    -0.963175232023E+02   -0.90769E-06   -0.41875E-07  2672   0.670E-03
  31 F= -.96317523E+02 E0= -.96287101E+02  d E =-.815791E-02
       N       E                     dE             d eps       ncg     rms          rms(c)
DAV:   1    -0.963204910709E+02   -0.29688E-02   -0.36493E-01  4342   0.122E+00    0.666E-02
DAV:   2    -0.963212629489E+02   -0.77188E-03   -0.79767E-03  6464   0.334E-01    0.548E-02
DAV:   3    -0.963212601340E+02    0.28149E-05   -0.29707E-04  5344   0.216E-01    0.417E-02
DAV:   4    -0.963212602928E+02   -0.15879E-06   -0.13248E-04  5280   0.214E-01    0.341E-02
DAV:   5    -0.963212762817E+02   -0.15989E-04   -0.24521E-04  5431   0.279E-01    0.318E-02
DAV:   6    -0.963212485313E+02    0.27750E-04   -0.12048E-04  6272   0.192E-01    0.655E-03
DAV:   7    -0.963212498840E+02   -0.13527E-05   -0.19320E-05  6200   0.280E-02    0.457E-03
DAV:   8    -0.963212500379E+02   -0.15390E-06   -0.27033E-06  3512   0.194E-02
  32 F= -.96321250E+02 E0= -.96290883E+02  d E =-.372684E-02
       N       E                     dE             d eps       ncg     rms          rms(c)
DAV:   1    -0.963245201326E+02   -0.32702E-02   -0.32869E+00  4340   0.367E+00    0.202E-01
DAV:   2    -0.963315315372E+02   -0.70114E-02   -0.72768E-02  6446   0.103E+00    0.169E-01
DAV:   3    -0.963314337597E+02    0.97778E-04   -0.24493E-03  5263   0.568E-01    0.121E-01
DAV:   4    -0.963313837525E+02    0.50007E-04   -0.53561E-04  5296   0.424E-01    0.887E-02
DAV:   5    -0.963314317562E+02   -0.48004E-04   -0.74068E-04  5919   0.518E-01    0.648E-02
DAV:   6    -0.963313787212E+02    0.53035E-04   -0.92391E-04  5989   0.542E-01    0.302E-02
DAV:   7    -0.963313476267E+02    0.31095E-04   -0.23840E-04  7444   0.208E-01    0.116E-02
DAV:   8    -0.963313499321E+02   -0.23054E-05   -0.37378E-05  5736   0.505E-02    0.873E-03
DAV:   9    -0.963313503726E+02   -0.44052E-06   -0.74900E-06  4230   0.340E-02
  33 F= -.96331350E+02 E0= -.96301145E+02  d E =-.138272E-01
       N       E                     dE             d eps       ncg     rms          rms(c)
DAV:   1    -0.963184415342E+02    0.12908E-01   -0.13157E+01  4341   0.735E+00    0.417E-01
DAV:   2    -0.963478206505E+02   -0.29379E-01   -0.30639E-01  6422   0.230E+00    0.382E-01
DAV:   3    -0.963469680370E+02    0.85261E-03   -0.11875E-02  5319   0.142E+00    0.247E-01
DAV:   4    -0.963468170542E+02    0.15098E-03   -0.28542E-03  5398   0.929E-01    0.191E-01
DAV:   5    -0.963477206841E+02   -0.90363E-03   -0.79702E-03  5597   0.152E+00    0.184E-01
DAV:   6    -0.963465774986E+02    0.11432E-02   -0.63389E-03  6594   0.132E+00    0.539E-02
DAV:   7    -0.963465741045E+02    0.33941E-05   -0.87604E-04  6887   0.376E-01    0.272E-02
DAV:   8    -0.963465867475E+02   -0.12643E-04   -0.19729E-04  5536   0.122E-01    0.213E-02
DAV:   9    -0.963465875290E+02   -0.78150E-06   -0.54182E-05  4832   0.946E-02    0.134E-02
DAV:  10    -0.963465889355E+02   -0.14065E-05   -0.13138E-05  4704   0.485E-02    0.520E-03
DAV:  11    -0.963465915230E+02   -0.25875E-05   -0.58883E-06  4288   0.191E-02    0.271E-03
DAV:  12    -0.963465935410E+02   -0.20180E-05   -0.19682E-06  3000   0.201E-02    0.231E-03
DAV:  13    -0.963465947695E+02   -0.12285E-05   -0.57493E-07  2712   0.110E-02    0.701E-04
DAV:  14    -0.963465967037E+02   -0.19342E-05   -0.41932E-07  2736   0.449E-03    0.685E-04
DAV:  15    -0.963465974720E+02   -0.76828E-06   -0.23066E-07  2728   0.395E-03
  34 F= -.96346597E+02 E0= -.96316726E+02  d E =-.290743E-01
       N       E                     dE             d eps       ncg     rms          rms(c)
DAV:   1    -0.962336454868E+02    0.11295E+00   -0.52688E+01  4341   0.148E+01    0.879E-01
DAV:   2    -0.963638089500E+02   -0.13016E+00   -0.13647E+00  6422   0.522E+00    0.845E-01
DAV:   3    -0.963583222715E+02    0.54867E-02   -0.56243E-02  5328   0.348E+00    0.509E-01
DAV:   4    -0.963584316327E+02   -0.10936E-03   -0.20918E-02  5614   0.247E+00    0.435E-01
DAV:   5    -0.963593546146E+02   -0.92298E-03   -0.33161E-02  5516   0.304E+00    0.346E-01
DAV:   6    -0.963561778428E+02    0.31768E-02   -0.16586E-02  6667   0.209E+00    0.103E-01
DAV:   7    -0.963563707094E+02   -0.19287E-03   -0.39875E-03  6576   0.706E-01    0.648E-02
DAV:   8    -0.963563969931E+02   -0.26284E-04   -0.93364E-04  5064   0.296E-01    0.452E-02
DAV:   9    -0.963563951921E+02    0.18010E-05   -0.22035E-04  5264   0.189E-01    0.272E-02
DAV:  10    -0.963563980772E+02   -0.28851E-05   -0.60285E-05  5568   0.114E-01    0.114E-02
DAV:  11    -0.963564073322E+02   -0.92550E-05   -0.22441E-05  5560   0.444E-02    0.570E-03
DAV:  12    -0.963564134805E+02   -0.61482E-05   -0.70886E-06  4216   0.350E-02    0.379E-03
DAV:  13    -0.963564174608E+02   -0.39804E-05   -0.21686E-06  3008   0.216E-02    0.169E-03
DAV:  14    -0.963564214932E+02   -0.40323E-05   -0.10220E-06  2840   0.103E-02    0.124E-03
DAV:  15    -0.963564271744E+02   -0.56812E-05   -0.77112E-07  2880   0.750E-03    0.933E-04
DAV:  16    -0.963564286312E+02   -0.14568E-05   -0.35251E-07  2840   0.445E-03    0.595E-04
DAV:  17    -0.963564314468E+02   -0.28156E-05   -0.30752E-07  2656   0.392E-03    0.529E-04
DAV:  18    -0.963564338635E+02   -0.24167E-05   -0.26089E-07  2736   0.243E-03    0.344E-04
DAV:  19    -0.963564350877E+02   -0.12243E-05   -0.13924E-07  2752   0.260E-03    0.348E-04
DAV:  20    -0.963564361387E+02   -0.10509E-05   -0.11843E-07  2656   0.171E-03    0.191E-04
DAV:  21    -0.963564365630E+02   -0.42433E-06   -0.63180E-08  2664   0.138E-03
  35 F= -.96356437E+02 E0= -.96327221E+02  d E =-.389134E-01
       N       E                     dE             d eps       ncg     rms          rms(c)
DAV:   1    -0.963535607344E+02    0.28754E-02   -0.14771E+00  4346   0.249E+00    0.138E-01
DAV:   2    -0.963569214296E+02   -0.33607E-02   -0.34790E-02  6383   0.740E-01    0.118E-01
DAV:   3    -0.963569039701E+02    0.17460E-04   -0.15719E-03  5216   0.563E-01    0.882E-02
DAV:   4    -0.963568855569E+02    0.18413E-04   -0.68246E-04  5454   0.471E-01    0.719E-02
DAV:   5    -0.963569133790E+02   -0.27822E-04   -0.83822E-04  5574   0.509E-01    0.612E-02
DAV:   6    -0.963568316158E+02    0.81763E-04   -0.36578E-04  6952   0.320E-01    0.106E-02
DAV:   7    -0.963568400044E+02   -0.83886E-05   -0.78579E-05  6440   0.576E-02    0.926E-03
DAV:   8    -0.963568401258E+02   -0.12142E-06   -0.10680E-05  4360   0.397E-02    0.588E-03
DAV:   9    -0.963568401059E+02    0.19907E-07   -0.28281E-06  3392   0.234E-02
  36 F= -.96356840E+02 E0= -.96327517E+02  d E =-.393169E-01
       N       E                     dE             d eps       ncg     rms          rms(c)
DAV:   1    -0.963510500641E+02    0.57901E-02   -0.49393E+00  4340   0.447E+00    0.264E-01
DAV:   2    -0.963619141777E+02   -0.10864E-01   -0.11256E-01  6315   0.121E+00    0.208E-01
DAV:   3    -0.963619801747E+02   -0.65997E-04   -0.56665E-03  5248   0.108E+00    0.167E-01
DAV:   4    -0.963618765858E+02    0.10359E-03   -0.39073E-03  5583   0.111E+00    0.133E-01
DAV:   5    -0.963616619057E+02    0.21468E-03   -0.24379E-03  6925   0.773E-01    0.720E-02
DAV:   6    -0.963615388433E+02    0.12306E-03   -0.70007E-04  6912   0.412E-01    0.214E-02
DAV:   7    -0.963615548913E+02   -0.16048E-04   -0.18875E-04  6416   0.101E-01    0.162E-02
DAV:   8    -0.963615555333E+02   -0.64197E-06   -0.35252E-05  4896   0.750E-02    0.103E-02
DAV:   9    -0.963615567664E+02   -0.12332E-05   -0.74006E-06  4296   0.429E-02    0.527E-03
DAV:  10    -0.963615594442E+02   -0.26777E-05   -0.31328E-06  3416   0.265E-02    0.325E-03
DAV:  11    -0.963615621552E+02   -0.27111E-05   -0.23441E-06  2984   0.179E-02    0.143E-03
DAV:  12    -0.963615643383E+02   -0.21831E-05   -0.94131E-07  2728   0.934E-03    0.123E-03
DAV:  13    -0.963615660593E+02   -0.17210E-05   -0.53289E-07  2720   0.707E-03    0.878E-04
DAV:  14    -0.963615674523E+02   -0.13929E-05   -0.27871E-07  2616   0.388E-03    0.590E-04
DAV:  15    -0.963615705235E+02   -0.30712E-05   -0.33882E-07  2752   0.354E-03    0.642E-04
DAV:  16    -0.963615715010E+02   -0.97754E-06   -0.15011E-07  2784   0.333E-03
  37 F= -.96361572E+02 E0= -.96332318E+02  d E =-.473140E-02
       N       E                     dE             d eps       ncg     rms          rms(c)
DAV:   1    -0.963526477729E+02    0.89228E-02   -0.48154E+00  4340   0.438E+00    0.255E-01
DAV:   2    -0.963629267050E+02   -0.10279E-01   -0.10662E-01  6314   0.116E+00    0.202E-01
DAV:   3    -0.963629538839E+02   -0.27179E-04   -0.48910E-03  5304   0.979E-01    0.160E-01
DAV:   4    -0.963629198979E+02    0.33986E-04   -0.36451E-03  5590   0.109E+00    0.132E-01
DAV:   5    -0.963627069152E+02    0.21298E-03   -0.25514E-03  6787   0.803E-01    0.713E-02
DAV:   6    -0.963625745228E+02    0.13239E-03   -0.69299E-04  7007   0.411E-01    0.206E-02
DAV:   7    -0.963625893280E+02   -0.14805E-04   -0.17840E-04  6416   0.921E-02    0.155E-02
DAV:   8    -0.963625901024E+02   -0.77445E-06   -0.32449E-05  4880   0.729E-02    0.101E-02
DAV:   9    -0.963625912345E+02   -0.11321E-05   -0.68308E-06  4296   0.425E-02    0.503E-03
DAV:  10    -0.963625938091E+02   -0.25746E-05   -0.29305E-06  3360   0.240E-02    0.311E-03
DAV:  11    -0.963625965447E+02   -0.27356E-05   -0.22776E-06  2936   0.172E-02    0.146E-03
DAV:  12    -0.963625985270E+02   -0.19823E-05   -0.93781E-07  2728   0.915E-03    0.121E-03
DAV:  13    -0.963626003903E+02   -0.18633E-05   -0.52014E-07  2704   0.673E-03    0.866E-04
DAV:  14    -0.963626014368E+02   -0.10466E-05   -0.26342E-07  2688   0.392E-03    0.613E-04
DAV:  15    -0.963626044182E+02   -0.29813E-05   -0.30530E-07  2712   0.320E-03    0.610E-04
DAV:  16    -0.963626055767E+02   -0.11585E-05   -0.14017E-07  2776   0.336E-03    0.405E-04
DAV:  17    -0.963626064053E+02   -0.82859E-06   -0.90824E-08  2600   0.195E-03
  38 F= -.96362606E+02 E0= -.96333422E+02  d E =-.576630E-02
       N       E                     dE             d eps       ncg     rms          rms(c)
DAV:   1    -0.963571083496E+02    0.54972E-02   -0.47133E+00  4341   0.431E+00    0.243E-01
DAV:   2    -0.963672465790E+02   -0.10138E-01   -0.10494E-01  6366   0.120E+00    0.207E-01
DAV:   3    -0.963671033402E+02    0.14324E-03   -0.36638E-03  5328   0.791E-01    0.147E-01
DAV:   4    -0.963670800903E+02    0.23250E-04   -0.13549E-03  5285   0.701E-01    0.119E-01
DAV:   5    -0.963673676593E+02   -0.28757E-03   -0.34179E-03  5667   0.983E-01    0.111E-01
DAV:   6    -0.963669183326E+02    0.44933E-03   -0.18532E-03  6737   0.718E-01    0.214E-02
DAV:   7    -0.963669393258E+02   -0.20993E-04   -0.26074E-04  6520   0.121E-01    0.168E-02
DAV:   8    -0.963669396108E+02   -0.28504E-06   -0.42034E-05  4912   0.696E-02    0.108E-02
DAV:   9    -0.963669393449E+02    0.26595E-06   -0.92265E-06  4352   0.428E-02
  39 F= -.96366939E+02 E0= -.96337886E+02  d E =-.433294E-02
       N       E                     dE             d eps       ncg     rms          rms(c)
DAV:   1    -0.962767634196E+02    0.90176E-01   -0.42456E+01  4340   0.130E+01    0.784E-01
DAV:   2    -0.963794732541E+02   -0.10271E+00   -0.10717E+00  6406   0.451E+00    0.746E-01
DAV:   3    -0.963758951809E+02    0.35781E-02   -0.48712E-02  5248   0.341E+00    0.473E-01
DAV:   4    -0.963758808934E+02    0.14287E-04   -0.22314E-02  5701   0.260E+00    0.407E-01
DAV:   5    -0.963755888361E+02    0.29206E-03   -0.24986E-02  6100   0.261E+00    0.294E-01
DAV:   6    -0.963736323416E+02    0.19565E-02   -0.99514E-03  6798   0.161E+00    0.717E-02
DAV:   7    -0.963738452310E+02   -0.21289E-03   -0.26606E-03  6360   0.466E-01    0.554E-02
DAV:   8    -0.963738491125E+02   -0.38815E-05   -0.60319E-04  5008   0.255E-01    0.368E-02
DAV:   9    -0.963738437544E+02    0.53582E-05   -0.12887E-04  5408   0.153E-01    0.221E-02
DAV:  10    -0.963738433549E+02    0.39942E-06   -0.37112E-05  5528   0.948E-02    0.108E-02
DAV:  11    -0.963738480327E+02   -0.46778E-05   -0.16087E-05  5040   0.419E-02    0.441E-03
DAV:  12    -0.963738506770E+02   -0.26443E-05   -0.49232E-06  4088   0.268E-02    0.323E-03
DAV:  13    -0.963738524597E+02   -0.17827E-05   -0.19612E-06  2936   0.182E-02    0.152E-03
DAV:  14    -0.963738537242E+02   -0.12645E-05   -0.61531E-07  2704   0.794E-03    0.110E-03
DAV:  15    -0.963738561218E+02   -0.23976E-05   -0.46377E-07  2726   0.517E-03    0.655E-04
DAV:  16    -0.963738568319E+02   -0.71008E-06   -0.16900E-07  2728   0.389E-03
  40 F= -.96373857E+02 E0= -.96345199E+02  d E =-.112504E-01
       N       E                     dE             d eps       ncg     rms          rms(c)
DAV:   1    -0.963760303996E+02   -0.21743E-02   -0.20949E+00  4340   0.290E+00    0.159E-01
DAV:   2    -0.963804021113E+02   -0.43717E-02   -0.45113E-02  6334   0.762E-01    0.129E-01
DAV:   3    -0.963804006918E+02    0.14196E-05   -0.18494E-03  5224   0.601E-01    0.101E-01
DAV:   4    -0.963803951507E+02    0.55410E-05   -0.11822E-03  5527   0.632E-01    0.825E-02
DAV:   5    -0.963803725942E+02    0.22557E-04   -0.11536E-03  6363   0.555E-01    0.567E-02
DAV:   6    -0.963802793894E+02    0.93205E-04   -0.37424E-04  6976   0.321E-01    0.134E-02
DAV:   7    -0.963802865816E+02   -0.71921E-05   -0.86363E-05  6456   0.493E-02    0.102E-02
DAV:   8    -0.963802866974E+02   -0.11578E-06   -0.12465E-05  4464   0.449E-02    0.686E-03
DAV:   9    -0.963802866194E+02    0.77940E-07   -0.24185E-06  2840   0.275E-02
  41 F= -.96380287E+02 E0= -.96351629E+02  d E =-.642979E-02
       N       E                     dE             d eps       ncg     rms          rms(c)
DAV:   1    -0.963532364518E+02    0.27050E-01   -0.18875E+01  4340   0.868E+00    0.492E-01
DAV:   2    -0.963951280239E+02   -0.41892E-01   -0.43447E-01  6404   0.281E+00    0.464E-01
DAV:   3    -0.963943299759E+02    0.79805E-03   -0.23438E-02  5104   0.239E+00    0.323E-01
DAV:   4    -0.963939864800E+02    0.34350E-03   -0.11286E-02  5623   0.187E+00    0.261E-01
DAV:   5    -0.963936731995E+02    0.31328E-03   -0.92813E-03  6301   0.156E+00    0.177E-01
DAV:   6    -0.963929818738E+02    0.69133E-03   -0.35714E-03  6872   0.936E-01    0.403E-02
DAV:   7    -0.963930703321E+02   -0.88458E-04   -0.10026E-03  6256   0.243E-01    0.331E-02
DAV:   8    -0.963930710659E+02   -0.73377E-06   -0.19751E-04  4968   0.156E-01    0.219E-02
DAV:   9    -0.963930710789E+02   -0.12980E-07   -0.43904E-05  5464   0.908E-02    0.130E-02
DAV:  10    -0.963930736170E+02   -0.25381E-05   -0.14276E-05  4672   0.585E-02    0.705E-03
DAV:  11    -0.963930794772E+02   -0.58602E-05   -0.77759E-06  4320   0.335E-02    0.274E-03
DAV:  12    -0.963930831520E+02   -0.36748E-05   -0.21881E-06  2984   0.180E-02    0.250E-03
DAV:  13    -0.963930855797E+02   -0.24278E-05   -0.99784E-07  2712   0.126E-02    0.114E-03
DAV:  14    -0.963930880859E+02   -0.25062E-05   -0.45719E-07  2736   0.520E-03    0.851E-04
DAV:  15    -0.963930922053E+02   -0.41194E-05   -0.46299E-07  2744   0.446E-03    0.730E-04
DAV:  16    -0.963930933818E+02   -0.11765E-05   -0.17912E-07  2784   0.375E-03    0.482E-04
DAV:  17    -0.963930957913E+02   -0.24095E-05   -0.17330E-07  2616   0.260E-03    0.363E-04
DAV:  18    -0.963930980218E+02   -0.22305E-05   -0.17389E-07  2696   0.242E-03    0.353E-04
DAV:  19    -0.963930987605E+02   -0.73871E-06   -0.99994E-08  2752   0.218E-03
  42 F= -.96393099E+02 E0= -.96364443E+02  d E =-.192419E-01
       N       E                     dE             d eps       ncg     rms          rms(c)
DAV:   1    -0.962147241180E+02    0.17837E+00   -0.75619E+01  4340   0.173E+01    0.102E+00
DAV:   2    -0.964024084256E+02   -0.18768E+00   -0.19496E+00  6459   0.623E+00    0.102E+00
DAV:   3    -0.963961639696E+02    0.62445E-02   -0.10393E-01  5168   0.513E+00    0.680E-01
DAV:   4    -0.963940589863E+02    0.21050E-02   -0.45740E-02  5991   0.367E+00    0.563E-01
DAV:   5    -0.963918901942E+02    0.21688E-02   -0.31900E-02  6534   0.286E+00    0.352E-01
DAV:   6    -0.963897935930E+02    0.20966E-02   -0.14077E-02  6832   0.184E+00    0.978E-02
DAV:   7    -0.963900814241E+02   -0.28783E-03   -0.38944E-03  6152   0.613E-01    0.661E-02
DAV:   8    -0.963900821425E+02   -0.71840E-06   -0.98408E-04  4928   0.350E-01    0.463E-02
DAV:   9    -0.963900803126E+02    0.18299E-05   -0.24916E-04  5440   0.208E-01    0.286E-02
DAV:  10    -0.963900813667E+02   -0.10541E-05   -0.71563E-05  5640   0.130E-01    0.134E-02
DAV:  11    -0.963900958679E+02   -0.14501E-04   -0.28035E-05  5560   0.602E-02    0.644E-03
DAV:  12    -0.963901054884E+02   -0.96205E-05   -0.93775E-06  4376   0.418E-02    0.509E-03
DAV:  13    -0.963901132296E+02   -0.77412E-05   -0.35149E-06  3888   0.276E-02    0.170E-03
DAV:  14    -0.963901227931E+02   -0.95635E-05   -0.10614E-06  2872   0.848E-03    0.141E-03
DAV:  15    -0.963901281906E+02   -0.53974E-05   -0.65625E-07  2840   0.913E-03    0.132E-03
DAV:  16    -0.963901358620E+02   -0.76715E-05   -0.63049E-07  2800   0.637E-03    0.764E-04
DAV:  17    -0.963901417208E+02   -0.58588E-05   -0.43635E-07  2776   0.384E-03    0.649E-04
DAV:  18    -0.963901454025E+02   -0.36817E-05   -0.32798E-07  2728   0.410E-03    0.500E-04
DAV:  19    -0.963901473812E+02   -0.19787E-05   -0.22114E-07  2736   0.307E-03    0.428E-04
DAV:  20    -0.963901494378E+02   -0.20565E-05   -0.19555E-07  2688   0.213E-03    0.298E-04
DAV:  21    -0.963901504167E+02   -0.97894E-06   -0.95575E-08  2720   0.183E-03
  43 F= -.96390150E+02 E0= -.96361505E+02  d E =-.162936E-01
       N       E                     dE             d eps       ncg     rms          rms(c)
DAV:   1    -0.963443789909E+02    0.45770E-01   -0.23516E+01  4340   0.954E+00    0.570E-01
DAV:   2    -0.963992686848E+02   -0.54890E-01   -0.57305E-01  6374   0.299E+00    0.523E-01
DAV:   3    -0.963972589559E+02    0.20097E-02   -0.19475E-02  5176   0.193E+00    0.334E-01
DAV:   4    -0.963969106787E+02    0.34828E-03   -0.52150E-03  5456   0.132E+00    0.270E-01
DAV:   5    -0.963984133754E+02   -0.15027E-02   -0.14694E-02  5768   0.210E+00    0.249E-01
DAV:   6    -0.963962382079E+02    0.21752E-02   -0.10370E-02  6829   0.169E+00    0.533E-02
DAV:   7    -0.963963257177E+02   -0.87510E-04   -0.14976E-03  6552   0.400E-01    0.435E-02
DAV:   8    -0.963963329971E+02   -0.72795E-05   -0.32620E-04  5120   0.189E-01    0.291E-02
DAV:   9    -0.963963322169E+02    0.78027E-06   -0.81873E-05  4840   0.115E-01    0.178E-02
DAV:  10    -0.963963360688E+02   -0.38520E-05   -0.26920E-05  5976   0.694E-02    0.660E-03
DAV:  11    -0.963963408028E+02   -0.47340E-05   -0.11038E-05  4528   0.358E-02    0.413E-03
DAV:  12    -0.963963455161E+02   -0.47133E-05   -0.30301E-06  3832   0.219E-02    0.277E-03
DAV:  13    -0.963963482950E+02   -0.27788E-05   -0.11442E-06  2832   0.159E-02    0.135E-03
DAV:  14    -0.963963521535E+02   -0.38585E-05   -0.56088E-07  2832   0.701E-03    0.737E-04
DAV:  15    -0.963963557290E+02   -0.35755E-05   -0.42114E-07  2768   0.519E-03    0.805E-04
DAV:  16    -0.963963577866E+02   -0.20576E-05   -0.27298E-07  2776   0.441E-03    0.538E-04
DAV:  17    -0.963963602227E+02   -0.24361E-05   -0.25900E-07  2744   0.314E-03    0.440E-04
DAV:  18    -0.963963616646E+02   -0.14419E-05   -0.16855E-07  2744   0.237E-03    0.294E-04
DAV:  19    -0.963963626028E+02   -0.93819E-06   -0.11373E-07  2704   0.209E-03
  44 F= -.96396363E+02 E0= -.96367710E+02  d E =-.225058E-01
       N       E                     dE             d eps       ncg     rms          rms(c)
DAV:   1    -0.963980511588E+02   -0.16895E-02   -0.37564E-01  4353   0.121E+00    0.676E-02
DAV:   2    -0.963988233214E+02   -0.77216E-03   -0.80267E-03  6382   0.320E-01    0.571E-02
DAV:   3    -0.963988121717E+02    0.11150E-04   -0.25216E-04  5320   0.190E-01    0.419E-02
DAV:   4    -0.963988058991E+02    0.62726E-05   -0.73864E-05  5240   0.167E-01    0.314E-02
DAV:   5    -0.963988170884E+02   -0.11189E-04   -0.15372E-04  5715   0.229E-01    0.285E-02
DAV:   6    -0.963987969133E+02    0.20175E-04   -0.13102E-04  5777   0.204E-01    0.670E-03
DAV:   7    -0.963987961125E+02    0.80082E-06   -0.16553E-05  4979   0.376E-02    0.414E-03
DAV:   8    -0.963987967284E+02   -0.61595E-06   -0.60590E-06  4247   0.221E-02
  45 F= -.96398797E+02 E0= -.96370175E+02  d E =-.243413E-02
       N       E                     dE             d eps       ncg     rms          rms(c)
DAV:   1    -0.963974130652E+02    0.13830E-02   -0.33801E+00  4340   0.363E+00    0.209E-01
DAV:   2    -0.964044887561E+02   -0.70757E-02   -0.73976E-02  6358   0.107E+00    0.185E-01
DAV:   3    -0.964043351911E+02    0.15357E-03   -0.28016E-03  5232   0.712E-01    0.127E-01
DAV:   4    -0.964042577608E+02    0.77430E-04   -0.60070E-04  5326   0.462E-01    0.923E-02
DAV:   5    -0.964043877040E+02   -0.12994E-03   -0.12673E-03  6270   0.576E-01    0.684E-02
DAV:   6    -0.964042058236E+02    0.18188E-03   -0.11771E-03  6500   0.563E-01    0.264E-02
DAV:   7    -0.964042005771E+02    0.52465E-05   -0.15293E-04  6688   0.178E-01    0.122E-02
DAV:   8    -0.964042045902E+02   -0.40131E-05   -0.38732E-05  5198   0.518E-02    0.851E-03
DAV:   9    -0.964042066400E+02   -0.20498E-05   -0.10585E-05  4368   0.427E-02    0.481E-03
DAV:  10    -0.964042085739E+02   -0.19338E-05   -0.19535E-06  2910   0.226E-02    0.167E-03
DAV:  11    -0.964042106122E+02   -0.20383E-05   -0.78856E-07  2816   0.747E-03    0.110E-03
DAV:  12    -0.964042118489E+02   -0.12367E-05   -0.65572E-07  2736   0.914E-03    0.105E-03
DAV:  13    -0.964042131187E+02   -0.12698E-05   -0.28076E-07  2704   0.442E-03    0.416E-04
DAV:  14    -0.964042142836E+02   -0.11650E-05   -0.21044E-07  2704   0.294E-03    0.549E-04
DAV:  15    -0.964042148729E+02   -0.58924E-06   -0.12757E-07  2656   0.271E-03
  46 F= -.96404215E+02 E0= -.96375682E+02  d E =-.785227E-02
       N       E                     dE             d eps       ncg     rms          rms(c)
DAV:   1    -0.963787526367E+02    0.25462E-01   -0.13505E+01  4340   0.729E+00    0.435E-01
DAV:   2    -0.964083937081E+02   -0.29641E-01   -0.31189E-01  6366   0.239E+00    0.403E-01
DAV:   3    -0.964073488041E+02    0.10449E-02   -0.13044E-02  5224   0.166E+00    0.256E-01
DAV:   4    -0.964071462409E+02    0.20256E-03   -0.33612E-03  5317   0.104E+00    0.196E-01
DAV:   5    -0.964082310568E+02   -0.10848E-02   -0.96070E-03  5734   0.166E+00    0.198E-01
DAV:   6    -0.964067819150E+02    0.14491E-02   -0.63062E-03  6578   0.135E+00    0.410E-02
DAV:   7    -0.964068390215E+02   -0.57106E-04   -0.89940E-04  6544   0.285E-01    0.295E-02
DAV:   8    -0.964068464661E+02   -0.74446E-05   -0.16603E-04  4928   0.117E-01    0.198E-02
DAV:   9    -0.964068503535E+02   -0.38874E-05   -0.44589E-05  4920   0.898E-02    0.117E-02
DAV:  10    -0.964068563816E+02   -0.60282E-05   -0.12778E-05  4904   0.510E-02    0.418E-03
DAV:  11    -0.964068614963E+02   -0.51147E-05   -0.42798E-06  3824   0.200E-02    0.226E-03
DAV:  12    -0.964068656632E+02   -0.41669E-05   -0.17893E-06  2952   0.173E-02    0.202E-03
DAV:  13    -0.964068681965E+02   -0.25333E-05   -0.68602E-07  2816   0.962E-03    0.764E-04
DAV:  14    -0.964068722791E+02   -0.40826E-05   -0.54352E-07  2800   0.420E-03    0.785E-04
DAV:  15    -0.964068753714E+02   -0.30923E-05   -0.37150E-07  2760   0.517E-03    0.704E-04
DAV:  16    -0.964068773762E+02   -0.20048E-05   -0.22946E-07  2752   0.357E-03    0.447E-04
DAV:  17    -0.964068799395E+02   -0.25633E-05   -0.26432E-07  2744   0.302E-03    0.399E-04
DAV:  18    -0.964068812121E+02   -0.12727E-05   -0.14205E-07  2744   0.240E-03    0.288E-04
DAV:  19    -0.964068821688E+02   -0.95664E-06   -0.11834E-07  2688   0.198E-03
  47 F= -.96406882E+02 E0= -.96378528E+02  d E =-.105196E-01
       N       E                     dE             d eps       ncg     rms          rms(c)
DAV:   1    -0.964053224410E+02    0.15588E-02   -0.93510E-01  4346   0.193E+00    0.106E-01
DAV:   2    -0.964073228784E+02   -0.20004E-02   -0.20668E-02  6374   0.483E-01    0.855E-02
DAV:   3    -0.964073030895E+02    0.19789E-04   -0.55119E-04  5600   0.271E-01    0.648E-02
DAV:   4    -0.964073341188E+02   -0.31029E-04   -0.52833E-04  5448   0.416E-01    0.616E-02
DAV:   5    -0.964072881305E+02    0.45988E-04   -0.58483E-04  5694   0.434E-01    0.377E-02
DAV:   6    -0.964072534163E+02    0.34714E-04   -0.16194E-04  7096   0.240E-01    0.797E-03
DAV:   7    -0.964072563018E+02   -0.28855E-05   -0.33676E-05  6272   0.364E-02    0.666E-03
DAV:   8    -0.964072564957E+02   -0.19383E-06   -0.49826E-06  3928   0.314E-02
  48 F= -.96407256E+02 E0= -.96378857E+02  d E =-.108939E-01
       N       E                     dE             d eps       ncg     rms          rms(c)
DAV:   1    -0.964079376888E+02   -0.68139E-03   -0.13201E-02  4390   0.242E-01    0.109E-02
DAV:   2    -0.964079648898E+02   -0.27201E-04   -0.27843E-04  6464   0.829E-02    0.115E-02
DAV:   3    -0.964079641828E+02    0.70705E-06   -0.10894E-05  4712   0.532E-02    0.666E-03
DAV:   4    -0.964079642058E+02   -0.23050E-07   -0.21263E-06  2656   0.242E-02
  49 F= -.96407964E+02 E0= -.96379570E+02  d E =-.707710E-03
       N       E                     dE             d eps       ncg     rms          rms(c)
DAV:   1    -0.964097789858E+02   -0.18148E-02   -0.11913E-01  4349   0.726E-01    0.341E-02
DAV:   2    -0.964100197428E+02   -0.24076E-03   -0.24917E-03  6416   0.196E-01    0.307E-02
DAV:   3    -0.964100182095E+02    0.15334E-05   -0.13675E-04  5269   0.134E-01    0.247E-02
DAV:   4    -0.964100159265E+02    0.22830E-05   -0.68891E-05  4821   0.150E-01    0.186E-02
DAV:   5    -0.964100119984E+02    0.39281E-05   -0.28536E-05  5029   0.964E-02    0.117E-02
DAV:   6    -0.964100114824E+02    0.51595E-06   -0.15343E-05  5192   0.728E-02    0.607E-03
DAV:   7    -0.964100110813E+02    0.40117E-06   -0.54223E-06  3824   0.296E-02
  50 F= -.96410011E+02 E0= -.96381643E+02  d E =-.275459E-02
       N       E                     dE             d eps       ncg     rms          rms(c)
DAV:   1    -0.964128789717E+02   -0.28675E-02   -0.47699E-01  4344   0.145E+00    0.661E-02
DAV:   2    -0.964137725615E+02   -0.89359E-03   -0.92026E-03  6414   0.422E-01    0.550E-02
DAV:   3    -0.964137725693E+02   -0.77998E-08   -0.36621E-04  5199   0.251E-01    0.398E-02
DAV:   4    -0.964137650901E+02    0.74792E-05   -0.75001E-05  5240   0.162E-01    0.273E-02
DAV:   5    -0.964137902267E+02   -0.25137E-04   -0.17643E-04  5901   0.216E-01    0.278E-02
DAV:   6    -0.964137591938E+02    0.31033E-04   -0.13655E-04  5796   0.198E-01    0.715E-03
DAV:   7    -0.964137600622E+02   -0.86834E-06   -0.16719E-05  6376   0.423E-02    0.419E-03
DAV:   8    -0.964137600955E+02   -0.33353E-07   -0.26883E-06  3280   0.184E-02
  51 F= -.96413760E+02 E0= -.96385444E+02  d E =-.650360E-02
       N       E                     dE             d eps       ncg     rms          rms(c)
DAV:   1    -0.964163559410E+02   -0.25959E-02   -0.19072E+00  4341   0.290E+00    0.135E-01
DAV:   2    -0.964199836500E+02   -0.36277E-02   -0.37510E-02  6414   0.900E-01    0.121E-01
DAV:   3    -0.964199565346E+02    0.27115E-04   -0.17237E-03  5118   0.578E-01    0.808E-02
[...]
DAV:   5    -0.964917623634E+02   -0.12357E-04   -0.43016E-04  5721   0.375E-01    0.410E-02
DAV:   6    -0.964917193424E+02    0.43021E-04   -0.24386E-04  6727   0.274E-01    0.114E-02
DAV:   7    -0.964917189390E+02    0.40338E-06   -0.39903E-05  6803   0.649E-02    0.648E-03
DAV:   8    -0.964917191330E+02   -0.19401E-06   -0.76350E-06  4152   0.268E-02
 129 F= -.96491719E+02 E0= -.96463843E+02  d E =-.130551E-02
       N       E                     dE             d eps       ncg     rms          rms(c)
DAV:   1    -0.964839119389E+02    0.78070E-02   -0.42418E+00  4342   0.427E+00    0.202E-01
DAV:   2    -0.964925544275E+02   -0.86425E-02   -0.88815E-02  6436   0.123E+00    0.179E-01
DAV:   3    -0.964924227294E+02    0.13170E-03   -0.29415E-03  5326   0.671E-01    0.117E-01
DAV:   4    -0.964924120387E+02    0.10691E-04   -0.93004E-04  5437   0.571E-01    0.100E-01
DAV:   5    -0.964925181349E+02   -0.10610E-03   -0.19263E-03  5890   0.732E-01    0.820E-02
DAV:   6    -0.964922871580E+02    0.23098E-03   -0.12086E-03  7717   0.544E-01    0.257E-02
DAV:   7    -0.964922912983E+02   -0.41403E-05   -0.19431E-04  6848   0.159E-01    0.137E-02
DAV:   8    -0.964922926077E+02   -0.13094E-05   -0.39618E-05  5016   0.553E-02    0.958E-03
DAV:   9    -0.964922925364E+02    0.71304E-07   -0.93217E-06  4296   0.368E-02
 130 F= -.96492293E+02 E0= -.96464498E+02  d E =-.187892E-02
       N       E                     dE             d eps       ncg     rms          rms(c)
DAV:   1    -0.964923770612E+02   -0.84453E-04   -0.70596E-02  4345   0.548E-01    0.292E-02
DAV:   2    -0.964925266117E+02   -0.14955E-03   -0.15431E-03  6424   0.183E-01    0.266E-02
DAV:   3    -0.964925239693E+02    0.26423E-05   -0.78076E-05  5176   0.143E-01    0.176E-02
DAV:   4    -0.964925236239E+02    0.34546E-06   -0.36001E-05  4623   0.104E-01    0.146E-02
DAV:   5    -0.964925227864E+02    0.83749E-06   -0.37242E-05  4421   0.108E-01    0.117E-02
DAV:   6    -0.964925200162E+02    0.27702E-05   -0.13262E-05  4775   0.559E-02    0.225E-03
DAV:   7    -0.964925202724E+02   -0.25623E-06   -0.34707E-06  3624   0.153E-02
 131 F= -.96492520E+02 E0= -.96464730E+02  d E =-.227736E-03
       N       E                     dE             d eps       ncg     rms          rms(c)
DAV:   1    -0.964918024633E+02    0.71755E-03   -0.51753E-01  4342   0.148E+00    0.753E-02
DAV:   2    -0.964928233448E+02   -0.10209E-02   -0.10589E-02  6350   0.402E-01    0.608E-02
DAV:   3    -0.964928179659E+02    0.53789E-05   -0.42721E-04  5326   0.278E-01    0.469E-02
DAV:   4    -0.964928128904E+02    0.50755E-05   -0.23180E-04  5503   0.275E-01    0.377E-02
DAV:   5    -0.964928078661E+02    0.50243E-05   -0.25498E-04  5420   0.291E-01    0.314E-02
DAV:   6    -0.964927854817E+02    0.22384E-04   -0.11754E-04  6935   0.180E-01    0.725E-03
DAV:   7    -0.964927866348E+02   -0.11531E-05   -0.23140E-05  6032   0.341E-02    0.533E-03
DAV:   8    -0.964927868308E+02   -0.19599E-06   -0.37918E-06  3824   0.239E-02
 132 F= -.96492787E+02 E0= -.96465002E+02  d E =-.494294E-03
       N       E                     dE             d eps       ncg     rms          rms(c)
DAV:   1    -0.964928454922E+02   -0.58857E-04   -0.54250E-02  4350   0.482E-01    0.223E-02
DAV:   2    -0.964929563791E+02   -0.11089E-03   -0.11274E-03  6448   0.132E-01    0.183E-02
DAV:   3    -0.964929558069E+02    0.57224E-06   -0.32676E-05  5343   0.796E-02    0.130E-02
DAV:   4    -0.964929554577E+02    0.34925E-06   -0.11127E-05  4328   0.646E-02    0.107E-02
DAV:   5    -0.964929586554E+02   -0.31978E-05   -0.25264E-05  4071   0.878E-02    0.108E-02
DAV:   6    -0.964929548569E+02    0.37985E-05   -0.13947E-05  3072   0.662E-02    0.191E-03
DAV:   7    -0.964929552085E+02   -0.35157E-06   -0.25702E-06  3392   0.126E-02
 133 F= -.96492955E+02 E0= -.96465180E+02  d E =-.168378E-03
       N       E                     dE             d eps       ncg     rms          rms(c)
DAV:   1    -0.964924318884E+02    0.52297E-03   -0.48836E-01  4342   0.145E+00    0.647E-02
DAV:   2    -0.964933952699E+02   -0.96338E-03   -0.98272E-03  6454   0.378E-01    0.511E-02
DAV:   3    -0.964933893216E+02    0.59483E-05   -0.23210E-04  5616   0.169E-01    0.372E-02
DAV:   4    -0.964933851036E+02    0.42180E-05   -0.65765E-05  5136   0.164E-01    0.300E-02
DAV:   5    -0.964933898129E+02   -0.47093E-05   -0.10800E-04  6301   0.178E-01    0.219E-02
DAV:   6    -0.964933764898E+02    0.13323E-04   -0.87396E-05  6515   0.157E-01    0.668E-03
DAV:   7    -0.964933763446E+02    0.14523E-06   -0.12878E-05  5338   0.365E-02    0.407E-03
DAV:   8    -0.964933764726E+02   -0.12800E-06   -0.30308E-06  3432   0.188E-02
 134 F= -.96493376E+02 E0= -.96465624E+02  d E =-.589642E-03
       N       E                     dE             d eps       ncg     rms          rms(c)
DAV:   1    -0.964901279265E+02    0.32484E-02   -0.19532E+00  4342   0.289E+00    0.131E-01
DAV:   2    -0.964940220099E+02   -0.38941E-02   -0.39819E-02  6461   0.793E-01    0.110E-01
DAV:   3    -0.964939941940E+02    0.27816E-04   -0.11891E-03  5503   0.421E-01    0.775E-02
DAV:   4    -0.964939763020E+02    0.17892E-04   -0.31885E-04  5357   0.359E-01    0.632E-02
DAV:   5    -0.964940481648E+02   -0.71863E-04   -0.79294E-04  6011   0.475E-01    0.571E-02
DAV:   6    -0.964939292884E+02    0.11888E-03   -0.58651E-04  6997   0.403E-01    0.157E-02
DAV:   7    -0.964939322154E+02   -0.29270E-05   -0.83219E-05  6831   0.852E-02    0.931E-03
DAV:   8    -0.964939323131E+02   -0.97672E-07   -0.12591E-05  4568   0.336E-02    0.608E-03
DAV:   9    -0.964939322150E+02    0.98022E-07   -0.35689E-06  3584   0.246E-02
 135 F= -.96493932E+02 E0= -.96466230E+02  d E =-.114538E-02
       N       E                     dE             d eps       ncg     rms          rms(c)
DAV:   1    -0.964783110161E+02    0.15621E-01   -0.78128E+00  4342   0.579E+00    0.268E-01
DAV:   2    -0.964944207030E+02   -0.16110E-01   -0.16538E-01  6470   0.174E+00    0.249E-01
DAV:   3    -0.964941620547E+02    0.25865E-03   -0.60630E-03  5400   0.104E+00    0.161E-01
DAV:   4    -0.964941506179E+02    0.11437E-04   -0.20714E-03  5445   0.838E-01    0.140E-01
DAV:   5    -0.964942065754E+02   -0.55958E-04   -0.31731E-03  5922   0.940E-01    0.109E-01
DAV:   6    -0.964938757236E+02    0.33085E-03   -0.17973E-03  7510   0.665E-01    0.339E-02
DAV:   7    -0.964938910115E+02   -0.15288E-04   -0.39580E-04  6678   0.205E-01    0.194E-02
DAV:   8    -0.964938923697E+02   -0.13583E-05   -0.72229E-05  5160   0.832E-02    0.134E-02
DAV:   9    -0.964938914254E+02    0.94436E-06   -0.17225E-05  4544   0.513E-02    0.844E-03
DAV:  10    -0.964938908635E+02    0.56188E-06   -0.60875E-06  3992   0.348E-02
 136 F= -.96493891E+02 E0= -.96466286E+02  d E =-.110403E-02
       N       E                     dE             d eps       ncg     rms          rms(c)
DAV:   1    -0.964903347833E+02    0.35566E-02   -0.19290E+00  4342   0.288E+00    0.130E-01
DAV:   2    -0.964941737723E+02   -0.38390E-02   -0.39294E-02  6426   0.777E-01    0.109E-01
DAV:   3    -0.964941446902E+02    0.29082E-04   -0.12149E-03  5399   0.485E-01    0.801E-02
DAV:   4    -0.964941403205E+02    0.43697E-05   -0.64853E-04  5483   0.466E-01    0.694E-02
DAV:   5    -0.964941358304E+02    0.44901E-05   -0.74180E-04  6839   0.434E-01    0.479E-02
DAV:   6    -0.964940655486E+02    0.70282E-04   -0.29125E-04  7174   0.257E-01    0.109E-02
DAV:   7    -0.964940710941E+02   -0.55454E-05   -0.66310E-05  6680   0.710E-02    0.978E-03
DAV:   8    -0.964940709904E+02    0.10373E-06   -0.13892E-05  4584   0.462E-02    0.570E-03
DAV:   9    -0.964940706603E+02    0.33004E-06   -0.33785E-06  3488   0.233E-02
 137 F= -.96494071E+02 E0= -.96466418E+02  d E =-.128383E-02
       N       E                     dE             d eps       ncg     rms          rms(c)
DAV:   1    -0.964941188785E+02   -0.47888E-04   -0.12086E-01  4342   0.723E-01    0.322E-02
DAV:   2    -0.964943592460E+02   -0.24037E-03   -0.24543E-03  6387   0.205E-01    0.275E-02
DAV:   3    -0.964943584631E+02    0.78295E-06   -0.95991E-05  5263   0.139E-01    0.209E-02
DAV:   4    -0.964943568684E+02    0.15947E-05   -0.40870E-05  4894   0.116E-01    0.166E-02
DAV:   5    -0.964943569985E+02   -0.13015E-06   -0.44598E-05  4514   0.119E-01    0.147E-02
DAV:   6    -0.964943523143E+02    0.46842E-05   -0.21499E-05  5463   0.769E-02    0.346E-03
DAV:   7    -0.964943526263E+02   -0.31199E-06   -0.51066E-06  4351   0.167E-02
 138 F= -.96494353E+02 E0= -.96466699E+02  d E =-.281966E-03
       N       E                     dE             d eps       ncg     rms          rms(c)
DAV:   1    -0.964928017716E+02    0.15505E-02   -0.10882E+00  4341   0.217E+00    0.969E-02
DAV:   2    -0.964949857770E+02   -0.21840E-02   -0.22266E-02  6401   0.582E-01    0.765E-02
DAV:   3    -0.964949735238E+02    0.12253E-04   -0.56943E-04  5528   0.285E-01    0.576E-02
DAV:   4    -0.964949772675E+02   -0.37437E-05   -0.30595E-04  5430   0.331E-01    0.500E-02
DAV:   5    -0.964949790456E+02   -0.17781E-05   -0.46635E-04  5594   0.378E-01    0.413E-02
DAV:   6    -0.964949327103E+02    0.46335E-04   -0.21938E-04  7117   0.255E-01    0.915E-03
DAV:   7    -0.964949350705E+02   -0.23602E-05   -0.39684E-05  6391   0.376E-02    0.683E-03
DAV:   8    -0.964949350025E+02    0.68045E-07   -0.44959E-06  4016   0.261E-02
 139 F= -.96494935E+02 E0= -.96467279E+02  d E =-.864342E-03
       N       E                     dE             d eps       ncg     rms          rms(c)
DAV:   1    -0.964861802873E+02    0.87548E-02   -0.43546E+00  4341   0.434E+00    0.196E-01
DAV:   2    -0.964950285935E+02   -0.88483E-02   -0.90481E-02  6426   0.125E+00    0.172E-01
DAV:   3    -0.964949668201E+02    0.61773E-04   -0.33973E-03  5344   0.803E-01    0.124E-01
DAV:   4    -0.964949409685E+02    0.25852E-04   -0.14821E-03  5526   0.709E-01    0.103E-01
DAV:   5    -0.964949211561E+02    0.19812E-04   -0.16683E-03  5643   0.691E-01    0.799E-02
DAV:   6    -0.964947640956E+02    0.15706E-03   -0.80889E-04  7174   0.464E-01    0.215E-02
DAV:   7    -0.964947750600E+02   -0.10964E-04   -0.18915E-04  6600   0.113E-01    0.155E-02
DAV:   8    -0.964947747740E+02    0.28603E-06   -0.31010E-05  4832   0.625E-02    0.890E-03
DAV:   9    -0.964947749937E+02   -0.21973E-06   -0.83027E-06  4168   0.403E-02
 140 F= -.96494775E+02 E0= -.96467116E+02  d E =-.704333E-03
       N       E                     dE             d eps       ncg     rms          rms(c)
DAV:   1    -0.964924829017E+02    0.22919E-02   -0.13781E+00  4341   0.243E+00    0.109E-01
DAV:   2    -0.964951623635E+02   -0.26795E-02   -0.27517E-02  6423   0.660E-01    0.897E-02
DAV:   3    -0.964951243454E+02    0.38018E-04   -0.68032E-04  5552   0.323E-01    0.633E-02
DAV:   4    -0.964951076407E+02    0.16705E-04   -0.18505E-04  5272   0.264E-01    0.484E-02
DAV:   5    -0.964951481106E+02   -0.40470E-04   -0.42347E-04  6184   0.343E-01    0.405E-02
DAV:   6    -0.964950838594E+02    0.64251E-04   -0.35158E-04  7278   0.303E-01    0.127E-02
DAV:   7    -0.964950846446E+02   -0.78522E-06   -0.46046E-05  7272   0.859E-02    0.675E-03
DAV:   8    -0.964950850467E+02   -0.40210E-06   -0.85841E-06  4248   0.296E-02
 141 F= -.96495085E+02 E0= -.96467426E+02  d E =-.101439E-02
       N       E                     dE             d eps       ncg     rms          rms(c)
DAV:   1    -0.964951411770E+02   -0.56532E-04   -0.72513E-03  4421   0.179E-01    0.757E-03
DAV:   2    -0.964951569183E+02   -0.15741E-04   -0.16377E-04  6472   0.510E-02    0.806E-03
DAV:   3    -0.964951564216E+02    0.49674E-06   -0.33877E-06  3000   0.263E-02
 142 F= -.96495156E+02 E0= -.96467501E+02  d E =-.713749E-04
       N       E                     dE             d eps       ncg     rms          rms(c)
DAV:   1    -0.964952211673E+02   -0.64249E-04   -0.65629E-02  4347   0.533E-01    0.246E-02
DAV:   2    -0.964953533409E+02   -0.13217E-03   -0.13723E-03  6383   0.142E-01    0.214E-02
DAV:   3    -0.964953513501E+02    0.19909E-05   -0.32122E-05  5544   0.628E-02    0.164E-02
DAV:   4    -0.964953511491E+02    0.20099E-06   -0.15770E-05  4479   0.780E-02    0.136E-02
DAV:   5    -0.964953523236E+02   -0.11746E-05   -0.35967E-05  4335   0.105E-01    0.119E-02
DAV:   6    -0.964953481716E+02    0.41520E-05   -0.21512E-05  3982   0.832E-02    0.324E-03
DAV:   7    -0.964953481489E+02    0.22759E-07   -0.34794E-06  3472   0.182E-02
 143 F= -.96495348E+02 E0= -.96467696E+02  d E =-.263102E-03
       N       E                     dE             d eps       ncg     rms          rms(c)
DAV:   1    -0.964951200232E+02    0.22815E-03   -0.26208E-01  4342   0.106E+00    0.480E-02
DAV:   2    -0.964956528680E+02   -0.53284E-03   -0.54633E-03  6406   0.292E-01    0.400E-02
DAV:   3    -0.964956470413E+02    0.58267E-05   -0.13885E-04  5494   0.135E-01    0.291E-02
DAV:   4    -0.964956443695E+02    0.26718E-05   -0.42643E-05  5004   0.117E-01    0.229E-02
DAV:   5    -0.964956495201E+02   -0.51506E-05   -0.82803E-05  5204   0.172E-01    0.221E-02
DAV:   6    -0.964956387263E+02    0.10794E-04   -0.76697E-05  5555   0.155E-01    0.607E-03
DAV:   7    -0.964956375059E+02    0.12204E-05   -0.10757E-05  4292   0.390E-02    0.319E-03
DAV:   8    -0.964956382370E+02   -0.73109E-06   -0.71596E-06  4184   0.203E-02
 144 F= -.96495638E+02 E0= -.96467995E+02  d E =-.553190E-03
       N       E                     dE             d eps       ncg     rms          rms(c)
DAV:   1    -0.964937684041E+02    0.18691E-02   -0.10480E+00  4341   0.213E+00    0.966E-02
DAV:   2    -0.964959143260E+02   -0.21459E-02   -0.22027E-02  6398   0.582E-01    0.806E-02
DAV:   3    -0.964958889228E+02    0.25403E-04   -0.53625E-04  5453   0.237E-01    0.579E-02
DAV:   4    -0.964958787619E+02    0.10161E-04   -0.16754E-04  5236   0.226E-01    0.461E-02
DAV:   5    -0.964958889105E+02   -0.10149E-04   -0.28789E-04  5652   0.325E-01    0.412E-02
DAV:   6    -0.964958585416E+02    0.30369E-04   -0.29088E-04  6370   0.302E-01    0.145E-02
DAV:   7    -0.964958518930E+02    0.66485E-05   -0.63173E-05  7083   0.993E-02    0.615E-03
DAV:   8    -0.964958530591E+02   -0.11660E-05   -0.11536E-05  4743   0.288E-02    0.462E-03
DAV:   9    -0.964958534905E+02   -0.43144E-06   -0.19803E-06  2950   0.172E-02
 145 F= -.96495853E+02 E0= -.96468229E+02  d E =-.768444E-03
       N       E                     dE             d eps       ncg     rms          rms(c)
DAV:   1    -0.964958489017E+02    0.41574E-05   -0.27947E-03  4446   0.111E-01    0.491E-03
DAV:   2    -0.964958556423E+02   -0.67406E-05   -0.64646E-05  6446   0.383E-02    0.541E-03
DAV:   3    -0.964958557070E+02   -0.64727E-07   -0.31339E-06  2848   0.289E-02
 146 F= -.96495856E+02 E0= -.96468230E+02  d E =-.770660E-03
       N       E                     dE             d eps       ncg     rms          rms(c)
DAV:   1    -0.964958524641E+02    0.31782E-05   -0.10969E-03  4447   0.722E-02    0.428E-03
DAV:   2    -0.964958556417E+02   -0.31776E-05   -0.27997E-05  5319   0.256E-02    0.294E-03
DAV:   3    -0.964958559576E+02   -0.31589E-06   -0.81345E-06  3648   0.390E-02
 147 F= -.96495856E+02 E0= -.96468234E+02  d E =-.770911E-03
       N       E                     dE             d eps       ncg     rms          rms(c)
DAV:   1    -0.964958553533E+02    0.28836E-06   -0.27514E-04  5343   0.429E-02    0.191E-03
DAV:   2    -0.964958562430E+02   -0.88970E-06   -0.67482E-06  4550   0.126E-02
 148 F= -.96495856E+02 E0= -.96468232E+02  d E =-.771196E-03
       N       E                     dE             d eps       ncg     rms          rms(c)
DAV:   1    -0.964958562086E+02   -0.85530E-06   -0.41065E-05  5608   0.212E-02    0.118E-03
DAV:   2    -0.964958566792E+02   -0.47055E-06   -0.20489E-06  2662   0.214E-02
 149 F= -.96495857E+02 E0= -.96468231E+02  d E =-.771632E-03
       N       E                     dE             d eps       ncg     rms          rms(c)
DAV:   1    -0.964958561629E+02    0.45693E-07   -0.12340E-05  4663   0.210E-02    0.115E-03
DAV:   2    -0.964958566164E+02   -0.45344E-06   -0.32966E-06  3742   0.132E-02
 150 F= -.96495857E+02 E0= -.96468232E+02  d E =-.771570E-03
       N       E                     dE             d eps       ncg     rms          rms(c)
DAV:   1    -0.964958565261E+02   -0.36316E-06   -0.37019E-06  3704   0.127E-02    0.872E-04
DAV:   2    -0.964958567870E+02   -0.26089E-06   -0.12317E-06  2494   0.166E-02
 151 F= -.96495857E+02 E0= -.96468232E+02  d E =-.771740E-03
       N       E                     dE             d eps       ncg     rms          rms(c)
DAV:   1    -0.964958567003E+02   -0.17422E-06   -0.13953E-06  2823   0.133E-02    0.311E-04
DAV:   2    -0.964958568118E+02   -0.11153E-06   -0.44791E-07  2486   0.347E-03
 152 F= -.96495857E+02 E0= -.96468232E+02  d E =-.771765E-03
       N       E                     dE             d eps       ncg     rms          rms(c)
DAV:   1    -0.964958568326E+02   -0.13231E-06   -0.34003E-07  2656   0.361E-03    0.310E-04
DAV:   2    -0.964958568919E+02   -0.59255E-07   -0.12461E-07  2486   0.416E-03
 153 F= -.96495857E+02 E0= -.96468233E+02  d E =-.771845E-03
       N       E                     dE             d eps       ncg     rms          rms(c)
DAV:   1    -0.964958569091E+02   -0.76543E-07   -0.59531E-08  2560   0.331E-03    0.883E-05
DAV:   2    -0.964958569486E+02   -0.39465E-07   -0.28810E-08  2502   0.195E-03
 154 F= -.96495857E+02 E0= -.96468233E+02  d E =-.771902E-03
       N       E                     dE             d eps       ncg     rms          rms(c)
DAV:   1    -0.964958837764E+02   -0.26867E-04   -0.11076E-03  4377   0.680E-02    0.308E-03
DAV:   2    -0.964958860439E+02   -0.22675E-05   -0.23051E-05  6272   0.199E-02    0.269E-03
DAV:   3    -0.964958860629E+02   -0.18917E-07   -0.85137E-07  2616   0.134E-02
 155 F= -.96495886E+02 E0= -.96468261E+02  d E =-.291142E-04
       N       E                     dE             d eps       ncg     rms          rms(c)
DAV:   1    -0.964959492458E+02   -0.63202E-04   -0.10009E-02  4347   0.205E-01    0.970E-03
DAV:   2    -0.964959704588E+02   -0.21213E-04   -0.21882E-04  6380   0.588E-02    0.895E-03
DAV:   3    -0.964959701546E+02    0.30425E-06   -0.74165E-06  4216   0.326E-02
 156 F= -.96495970E+02 E0= -.96468343E+02  d E =-.113206E-03
       N       E                     dE             d eps       ncg     rms          rms(c)
DAV:   1    -0.964960409843E+02   -0.70526E-04   -0.40001E-02  4341   0.410E-01    0.201E-02
DAV:   2    -0.964961269662E+02   -0.85982E-04   -0.88972E-04  6401   0.119E-01    0.193E-02
DAV:   3    -0.964961253857E+02    0.15805E-05   -0.33918E-05  5185   0.776E-02    0.142E-02
DAV:   4    -0.964961251934E+02    0.19232E-06   -0.15155E-05  4209   0.725E-02    0.116E-02
DAV:   5    -0.964961248213E+02    0.37206E-06   -0.19164E-05  4018   0.785E-02    0.993E-03
DAV:   6    -0.964961230761E+02    0.17452E-05   -0.11390E-05  3497   0.587E-02    0.294E-03
DAV:   7    -0.964961229581E+02    0.11793E-06   -0.26573E-06  3095   0.139E-02
 157 F= -.96496123E+02 E0= -.96468492E+02  d E =-.266010E-03
       N       E                     dE             d eps       ncg     rms          rms(c)
DAV:   1    -0.964960556914E+02    0.67385E-04   -0.15996E-01  4340   0.817E-01    0.372E-02
DAV:   2    -0.964963797554E+02   -0.32406E-03   -0.33038E-03  6451   0.222E-01    0.297E-02
DAV:   3    -0.964963792087E+02    0.54669E-06   -0.92481E-05  5496   0.115E-01    0.218E-02
DAV:   4    -0.964963770261E+02    0.21826E-05   -0.18665E-05  4848   0.897E-02    0.169E-02
DAV:   5    -0.964963768175E+02    0.20856E-06   -0.23229E-05  5407   0.738E-02    0.990E-03
DAV:   6    -0.964963740865E+02    0.27310E-05   -0.19284E-05  4260   0.712E-02    0.413E-03
DAV:   7    -0.964963740201E+02    0.66415E-07   -0.31807E-06  3196   0.238E-02
 158 F= -.96496374E+02 E0= -.96468734E+02  d E =-.517072E-03
