Cu-Ag alloy CO adsorption (RPBE, matches
            1
    10.889444    0.000000    0.000000
     2.722361    4.715268    0.000000
     0.000000    0.000000   30.668396
   Cu   Ag   Cu   Ag   Cu   Ag   Cu   Ag   Cu   Ag   Cu   Ag   Cu   Ag   Cu   Ag   C    O 
     3     1     2     2     2     2     2     2     3     1     2     2     3     1     2     2     1     1
Direct configuration=     1
   0.00000000  0.00000000  0.39128229
   0.25000000  0.00000000  0.39128229
   0.50000000  0.00000000  0.39128229
   0.75000000  0.00000000  0.39128229
   0.00000000  0.50000000  0.39128229
   0.25000000  0.50000000  0.39128229
   0.50000000  0.50000000  0.39128229
   0.75000000  0.50000000  0.39128229
   0.08333333  0.16666667  0.46376076
   0.33333333  0.16666667  0.46376076
   0.58333333  0.16666667  0.46376076
   0.83333333  0.16666667  0.46376076
   0.08333333  0.66666667  0.46376076
   0.33333333  0.66666667  0.46376076
   0.58333333  0.66666667  0.46376076
   0.83333333  0.66666667  0.46376076
   0.91666667  0.33333333  0.53623924
   0.16666667  0.33333333  0.53623924
   0.41666667  0.33333333  0.53623924
   0.66666667  0.33333333  0.53623924
   0.91666667  0.83333333  0.53623924
   0.16666667  0.83333333  0.53623924
   0.41666667  0.83333333  0.53623924
   0.66666667  0.83333333  0.53623924
   0.00000000  0.00000000  0.60871771
   0.25000000  0.00000000  0.60871771
   0.50000000  0.00000000  0.60871771
   0.75000000  0.00000000  0.60871771
   0.00000000  0.50000000  0.60871771
   0.25000000  0.50000000  0.60871771
   0.50000000  0.50000000  0.60871771
   0.75000000  0.50000000  0.60871771
   0.40625000  0.37500000  0.66741006
   0.40625000  0.37500000  0.70425580
Direct configuration=     2
   0.00000000  0.00000000  0.39128229
   0.25000000  0.00000000  0.39128229
   0.50000000  0.00000000  0.39128229
   0.75000000  0.00000000  0.39128229
   0.00000000  0.50000000  0.39128229
   0.25000000  0.50000000  0.39128229
   0.50000000  0.50000000  0.39128229
   0.75000000  0.50000000  0.39128229
   0.08333333  0.16666667  0.46376076
   0.33333333  0.16666667  0.46376076
   0.58333333  0.16666667  0.46376076
   0.83333333  0.16666667  0.46376076
   0.08333333  0.66666667  0.46376076
   0.33333333  0.66666667  0.46376076
   0.58333333  0.66666667  0.46376076
   0.83333333  0.66666667  0.46376076
   0.92156369  0.32848523  0.53656257
   0.16554393  0.33633024  0.53615811
   0.41229320  0.33632011  0.53582807
   0.66872833  0.32847981  0.53634013
   0.92151607  0.82844072  0.53652698
   0.16556482  0.83260734  0.53616874
   0.40949605  0.84270464  0.53632909
   0.66731744  0.83542012  0.53693603
   0.00277644  0.99726633  0.60793329
   0.24725105  0.00452854  0.60813749
   0.49694603  0.00391854  0.60905586
   0.75428602  0.99345114  0.61039228
   0.00283058  0.49713396  0.60793652
   0.24902168  0.49970480  0.60863391
   0.49559776  0.50443277  0.61043370
   0.75400114  0.49824480  0.61049595
   0.40453557  0.37462191  0.65998504
   0.40637610  0.37468741  0.71097393
Direct configuration=     3
   0.00000000  0.00000000  0.39128229
   0.25000000  0.00000000  0.39128229
   0.50000000  0.00000000  0.39128229
   0.75000000  0.00000000  0.39128229
   0.00000000  0.50000000  0.39128229
   0.25000000  0.50000000  0.39128229
   0.50000000  0.50000000  0.39128229
   0.75000000  0.50000000  0.39128229
   0.08333333  0.16666667  0.46376076
   0.33333333  0.16666667  0.46376076
   0.58333333  0.16666667  0.46376076
   0.83333333  0.16666667  0.46376076
   0.08333333  0.66666667  0.46376076
   0.33333333  0.66666667  0.46376076
   0.58333333  0.66666667  0.46376076
   0.83333333  0.66666667  0.46376076
   0.91878096  0.33124016  0.53637884
   0.16618192  0.33462725  0.53620421
   0.41477842  0.33462288  0.53606171
   0.66755679  0.33123782  0.53628280
   0.91876040  0.83122094  0.53636347
   0.16619094  0.83301988  0.53620880
   0.41357074  0.83737941  0.53627803
   0.66694764  0.83423431  0.53654008
   0.00119873  0.99881973  0.60837904
   0.24881314  0.00195520  0.60846720
   0.49868145  0.00169183  0.60886371
   0.75185050  0.99717252  0.60944071
   0.00122211  0.49876258  0.60838043
   0.24957761  0.49987255  0.60868153
   0.49809933  0.50191385  0.60945859
   0.75172750  0.49924219  0.60948547
   0.40550979  0.37483676  0.66420429
   0.40630444  0.37486504  0.70715636
Direct configuration=     4
   0.00000000  0.00000000  0.39128229
   0.25000000  0.00000000  0.39128229
   0.50000000  0.00000000  0.39128229
   0.75000000  0.00000000  0.39128229
   0.00000000  0.50000000  0.39128229
   0.25000000  0.50000000  0.39128229
   0.50000000  0.50000000  0.39128229
   0.75000000  0.50000000  0.39128229
   0.08333333  0.16666667  0.46376076
   0.33333333  0.16666667  0.46376076
   0.58333333  0.16666667  0.46376076
   0.83333333  0.16666667  0.46376076
   0.08333333  0.66666667  0.46376076
   0.33333333  0.66666667  0.46376076
   0.58333333  0.66666667  0.46376076
   0.83333333  0.66666667  0.46376076
   0.91770785  0.33230255  0.53630798
   0.16642796  0.33397052  0.53622199
   0.41573680  0.33396837  0.53615182
   0.66710501  0.33230140  0.53626069
   0.91769772  0.83229309  0.53630042
   0.16643240  0.83317898  0.53622425
   0.41514209  0.83532581  0.53625834
   0.66680503  0.83377702  0.53638739
   0.00059031  0.99941878  0.60855093
   0.24941553  0.00096284  0.60859435
   0.49935068  0.00083314  0.60878961
   0.75091127  0.99860761  0.60907375
   0.00060182  0.49939064  0.60855162
   0.24979199  0.49993724  0.60869989
   0.49906402  0.50094247  0.60908256
   0.75085070  0.49962682  0.60909579
   0.40588549  0.37491961  0.66583138
   0.40627681  0.37493354  0.70568418
Direct configuration=     5
   0.00000000  0.00000000  0.39128229
   0.25000000  0.00000000  0.39128229
   0.50000000  0.00000000  0.39128229
   0.75000000  0.00000000  0.39128229
   0.00000000  0.50000000  0.39128229
   0.25000000  0.50000000  0.39128229
   0.50000000  0.50000000  0.39128229
   0.75000000  0.50000000  0.39128229
   0.08333333  0.16666667  0.46376076
   0.33333333  0.16666667  0.46376076
   0.58333333  0.16666667  0.46376076
   0.83333333  0.16666667  0.46376076
   0.08333333  0.66666667  0.46376076
   0.33333333  0.66666667  0.46376076
   0.58333333  0.66666667  0.46376076
   0.83333333  0.66666667  0.46376076
   0.91742961  0.33257801  0.53628961
   0.16649175  0.33380024  0.53622660
   0.41598529  0.33379867  0.53617518
   0.66698787  0.33257716  0.53625496
   0.91742219  0.83257107  0.53628407
   0.16649500  0.83322022  0.53622825
   0.41554950  0.83479336  0.53625324
   0.66676806  0.83365845  0.53634780
   0.00043256  0.99957410  0.60859550
   0.24957172  0.00070554  0.60862731
   0.49952420  0.00061050  0.60877039
   0.75066775  0.99897970  0.60897861
   0.00044100  0.49955348  0.60859600
   0.24984758  0.49995401  0.60870466
   0.49931414  0.50069062  0.60898506
   0.75062337  0.49972654  0.60899476
   0.40598290  0.37494109  0.66625325
   0.40626965  0.37495130  0.70530247
Direct configuration=     6
   0.00000000  0.00000000  0.39128229
   0.25000000  0.00000000  0.39128229
   0.50000000  0.00000000  0.39128229
   0.75000000  0.00000000  0.39128229
   0.00000000  0.50000000  0.39128229
   0.25000000  0.50000000  0.39128229
   0.50000000  0.50000000  0.39128229
   0.75000000  0.50000000  0.39128229
   0.08333333  0.16666667  0.46376076
   0.33333333  0.16666667  0.46376076
   0.58333333  0.16666667  0.46376076
   0.83333333  0.16666667  0.46376076
   0.08333333  0.66666667  0.46376076
   0.33333333  0.66666667  0.46376076
   0.58333333  0.66666667  0.46376076
   0.83333333  0.66666667  0.46376076
   0.91734848  0.33265833  0.53628425
   0.16651035  0.33375059  0.53622794
   0.41605775  0.33374918  0.53618199
   0.66695371  0.33265758  0.53625328
   0.91734185  0.83265214  0.53627930
   0.16651326  0.83323225  0.53622942
   0.41566830  0.83463810  0.53625175
   0.66675727  0.83362388  0.53633625
   0.00038656  0.99961939  0.60860850
   0.24961726  0.00063051  0.60863693
   0.49957480  0.00054558  0.60876479
   0.75059674  0.99908820  0.60895086
   0.00039410  0.49960096  0.60860895
   0.24986379  0.49995890  0.60870604
   0.49938708  0.50061717  0.60895663
   0.75055708  0.49975562  0.60896530
   0.40601130  0.37494736  0.66637627
   0.40626756  0.37495648  0.70519117
Direct configuration=     7
   0.00000000  0.00000000  0.39128229
   0.25000000  0.00000000  0.39128229
   0.50000000  0.00000000  0.39128229
   0.75000000  0.00000000  0.39128229
   0.00000000  0.50000000  0.39128229
   0.25000000  0.50000000  0.39128229
   0.50000000  0.50000000  0.39128229
   0.75000000  0.50000000  0.39128229
   0.08333333  0.16666667  0.46376076
   0.33333333  0.16666667  0.46376076
   0.58333333  0.16666667  0.46376076
   0.83333333  0.16666667  0.46376076
   0.08333333  0.66666667  0.46376076
   0.33333333  0.66666667  0.46376076
   0.58333333  0.66666667  0.46376076
   0.83333333  0.66666667  0.46376076
   0.92246898  0.32759194  0.53663168
   0.16529381  0.33699964  0.53613852
   0.41148271  0.33698170  0.53573482
   0.66897389  0.32805834  0.53645073
   0.92242785  0.82750901  0.53658644
   0.16533473  0.83244584  0.53614955
   0.40845514  0.84400079  0.53635989
   0.66738378  0.83553755  0.53709993
   0.00333434  0.99673276  0.60776922
   0.24667080  0.00543217  0.60803272
   0.49630656  0.00498886  0.60920704
   0.75497657  0.99258117  0.61071706
   0.00341722  0.49654075  0.60777357
   0.24899147  0.49950478  0.60872766
   0.49503277  0.50509134  0.61076311
   0.75462654  0.49779882  0.61081154
   0.40408730  0.37427289  0.66595940
   0.40637790  0.37467344  0.70460599
Direct configuration=     8
   0.00000000  0.00000000  0.39128229
   0.25000000  0.00000000  0.39128229
   0.50000000  0.00000000  0.39128229
   0.75000000  0.00000000  0.39128229
   0.00000000  0.50000000  0.39128229
   0.25000000  0.50000000  0.39128229
   0.50000000  0.50000000  0.39128229
   0.75000000  0.50000000  0.39128229
   0.08333333  0.16666667  0.46376076
   0.33333333  0.16666667  0.46376076
   0.58333333  0.16666667  0.46376076
   0.83333333  0.16666667  0.46376076
   0.08333333  0.66666667  0.46376076
   0.33333333  0.66666667  0.46376076
   0.58333333  0.66666667  0.46376076
   0.83333333  0.66666667  0.46376076
   0.93286151  0.31730923  0.53733680
   0.16282472  0.34359390  0.53595702
   0.40219723  0.34354240  0.53482723
   0.67307404  0.31872375  0.53685146
   0.93275036  0.81707054  0.53720982
   0.16294280  0.83084975  0.53598744
   0.39381535  0.86300326  0.53657938
   0.66865533  0.83942152  0.53864988
   0.00931712  0.99087408  0.60606582
   0.24069067  0.01517761  0.60680641
   0.48967338  0.01400692  0.61010461
   0.76386584  0.97937452  0.61430174
   0.00955291  0.49032977  0.60607810
   0.24722103  0.49858310  0.60877152
   0.48619528  0.51417209  0.61442952
   0.76288591  0.49382729  0.61455867
   0.40018235  0.37290398  0.66511332
   0.40660185  0.37409898  0.70341830
Direct configuration=     9
   0.00000000  0.00000000  0.39128229
   0.25000000  0.00000000  0.39128229
   0.50000000  0.00000000  0.39128229
   0.75000000  0.00000000  0.39128229
   0.00000000  0.50000000  0.39128229
   0.25000000  0.50000000  0.39128229
   0.50000000  0.50000000  0.39128229
   0.75000000  0.50000000  0.39128229
   0.08333333  0.16666667  0.46376076
   0.33333333  0.16666667  0.46376076
   0.58333333  0.16666667  0.46376076
   0.83333333  0.16666667  0.46376076
   0.08333333  0.66666667  0.46376076
   0.33333333  0.66666667  0.46376076
   0.58333333  0.66666667  0.46376076
   0.83333333  0.66666667  0.46376076
   0.93573447  0.31457905  0.53753951
   0.16084211  0.34901890  0.53553055
   0.39935149  0.34797784  0.53449661
   0.67289690  0.32435748  0.53883240
   0.93546303  0.81423256  0.53734990
   0.16193676  0.82898205  0.53562924
   0.39485634  0.86005032  0.53678986
   0.66822655  0.83446351  0.54004285
   0.01221360  0.98780687  0.60540231
   0.23727042  0.02018536  0.60653078
   0.48725439  0.01712132  0.61057557
   0.76584249  0.98201319  0.61579991
   0.01278389  0.48740668  0.60542108
   0.24591670  0.49843103  0.60889100
   0.48747890  0.51876014  0.61467459
   0.76409477  0.48814085  0.61583904
   0.39729788  0.36935541  0.66472968
   0.40600804  0.37341845  0.70296014
Direct configuration=    10
   0.00000000  0.00000000  0.39128229
   0.25000000  0.00000000  0.39128229
   0.50000000  0.00000000  0.39128229
   0.75000000  0.00000000  0.39128229
   0.00000000  0.50000000  0.39128229
   0.25000000  0.50000000  0.39128229
   0.50000000  0.50000000  0.39128229
   0.75000000  0.50000000  0.39128229
   0.08333333  0.16666667  0.46376076
   0.33333333  0.16666667  0.46376076
   0.58333333  0.16666667  0.46376076
   0.83333333  0.16666667  0.46376076
   0.08333333  0.66666667  0.46376076
   0.33333333  0.66666667  0.46376076
   0.58333333  0.66666667  0.46376076
   0.83333333  0.66666667  0.46376076
   0.93865119  0.31180728  0.53774532
   0.15882931  0.35452654  0.53509758
   0.39646240  0.35248084  0.53416096
   0.67271706  0.33007702  0.54084352
   0.93821702  0.81135136  0.53749211
   0.16091539  0.82708590  0.53526559
   0.39591318  0.85705240  0.53700355
   0.66779124  0.82942998  0.54145703
   0.01515420  0.98469294  0.60472870
   0.23379807  0.02526940  0.60625094
   0.48479856  0.02028316  0.61105370
   0.76784925  0.98469206  0.61732091
   0.01606408  0.48443907  0.60475405
   0.24459251  0.49827665  0.60901230
   0.48878207  0.52341808  0.61492338
   0.76532205  0.48236779  0.61713891
   0.39436948  0.36575279  0.66434020
   0.40540518  0.37272756  0.70249500
Direct configuration=    11
   0.00000000  0.00000000  0.39128229
   0.25000000  0.00000000  0.39128229
   0.50000000  0.00000000  0.39128229
   0.75000000  0.00000000  0.39128229
   0.00000000  0.50000000  0.39128229
   0.25000000  0.50000000  0.39128229
   0.50000000  0.50000000  0.39128229
   0.75000000  0.50000000  0.39128229
   0.08333333  0.16666667  0.46376076
   0.33333333  0.16666667  0.46376076
   0.58333333  0.16666667  0.46376076
   0.83333333  0.16666667  0.46376076
   0.08333333  0.66666667  0.46376076
   0.33333333  0.66666667  0.46376076
   0.58333333  0.66666667  0.46376076
   0.83333333  0.66666667  0.46376076
   0.93860678  0.31179343  0.53768492
   0.16019085  0.35351533  0.53429079
   0.39581877  0.35443787  0.53401203
   0.67260240  0.32763475  0.54214469
   0.93555577  0.81429453  0.53740360
   0.16217163  0.82552336  0.53461958
   0.39849075  0.85326188  0.53718932
   0.66792070  0.83210926  0.54273035
   0.01649439  0.98247506  0.60453545
   0.23319176  0.02545721  0.60596594
   0.48270127  0.02595624  0.61170477
   0.76882921  0.98251295  0.61845339
   0.01563043  0.48625785  0.60460797
   0.24537236  0.49801447  0.60936878
   0.49040997  0.52644432  0.61494585
   0.76670392  0.48278096  0.61838511
   0.39157740  0.36063618  0.66333665
   0.40392037  0.37169868  0.70201811
Direct configuration=    12
   0.00000000  0.00000000  0.39128229
   0.25000000  0.00000000  0.39128229
   0.50000000  0.00000000  0.39128229
   0.75000000  0.00000000  0.39128229
   0.00000000  0.50000000  0.39128229
   0.25000000  0.50000000  0.39128229
   0.50000000  0.50000000  0.39128229
   0.75000000  0.50000000  0.39128229
   0.08333333  0.16666667  0.46376076
   0.33333333  0.16666667  0.46376076
   0.58333333  0.16666667  0.46376076
   0.83333333  0.16666667  0.46376076
   0.08333333  0.66666667  0.46376076
   0.33333333  0.66666667  0.46376076
   0.58333333  0.66666667  0.46376076
   0.83333333  0.66666667  0.46376076
   0.93855892  0.31177851  0.53761984
   0.16165824  0.35242551  0.53342127
   0.39512510  0.35654706  0.53385151
   0.67247882  0.32500261  0.54354702
   0.93268762  0.81746652  0.53730820
   0.16352554  0.82383934  0.53392335
   0.40126872  0.84917667  0.53738954
   0.66806022  0.83499686  0.54410267
   0.01793879  0.98008475  0.60432717
   0.23253831  0.02565962  0.60565877
   0.48044093  0.03207039  0.61240646
   0.76988537  0.98016442  0.61967391
   0.01516305  0.48821802  0.60445053
   0.24621284  0.49773191  0.60975298
   0.49216442  0.52970583  0.61497006
   0.76819323  0.48322625  0.61972821
   0.38856823  0.35512176  0.66225507
   0.40232012  0.37058981  0.70150414
Direct configuration=    13
   0.00000000  0.00000000  0.39128229
   0.25000000  0.00000000  0.39128229
   0.50000000  0.00000000  0.39128229
   0.75000000  0.00000000  0.39128229
   0.00000000  0.50000000  0.39128229
   0.25000000  0.50000000  0.39128229
   0.50000000  0.50000000  0.39128229
   0.75000000  0.50000000  0.39128229
   0.08333333  0.16666667  0.46376076
   0.33333333  0.16666667  0.46376076
   0.58333333  0.16666667  0.46376076
   0.83333333  0.16666667  0.46376076
   0.08333333  0.66666667  0.46376076
   0.33333333  0.66666667  0.46376076
   0.58333333  0.66666667  0.46376076
   0.83333333  0.66666667  0.46376076
   0.93852678  0.31179845  0.53760768
   0.16190023  0.35220278  0.53328422
   0.39505645  0.35680592  0.53382897
   0.67249262  0.32458422  0.54374805
   0.93221767  0.81798649  0.53729129
   0.16373457  0.82361310  0.53381147
   0.40170868  0.84858435  0.53741969
   0.66808406  0.83541972  0.54431246
   0.01813639  0.97972248  0.60429642
   0.23247129  0.02563961  0.60560466
   0.48008231  0.03310455  0.61252628
   0.77005036  0.97980231  0.61987246
   0.01506909  0.48856511  0.60442560
   0.24635863  0.49770981  0.60981638
   0.49242484  0.53020858  0.61498655
   0.76844441  0.48329197  0.61994349
   0.38814908  0.35425388  0.66221660
   0.40198815  0.37034358  0.70126565
Direct configuration=    14
   0.00000000  0.00000000  0.39128229
   0.25000000  0.00000000  0.39128229
   0.50000000  0.00000000  0.39128229
   0.75000000  0.00000000  0.39128229
   0.00000000  0.50000000  0.39128229
   0.25000000  0.50000000  0.39128229
   0.50000000  0.50000000  0.39128229
   0.75000000  0.50000000  0.39128229
   0.08333333  0.16666667  0.46376076
   0.33333333  0.16666667  0.46376076
   0.58333333  0.16666667  0.46376076
   0.83333333  0.16666667  0.46376076
   0.08333333  0.66666667  0.46376076
   0.33333333  0.66666667  0.46376076
   0.58333333  0.66666667  0.46376076
   0.83333333  0.66666667  0.46376076
   0.93843034  0.31185827  0.53757122
   0.16262621  0.35153460  0.53287306
   0.39485049  0.35758250  0.53376134
   0.67253405  0.32332904  0.54435113
   0.93080783  0.81954643  0.53724057
   0.16436166  0.82293438  0.53347586
   0.40302856  0.84680741  0.53751015
   0.66815558  0.83668831  0.54494183
   0.01872918  0.97863567  0.60420419
   0.23227025  0.02557958  0.60544233
   0.47900646  0.03620705  0.61288572
   0.77054532  0.97871598  0.62046810
   0.01478720  0.48960639  0.60435084
   0.24679599  0.49764351  0.61000655
   0.49320609  0.53171683  0.61503603
   0.76919796  0.48348913  0.62058934
   0.38689160  0.35165023  0.66210119
   0.40099224  0.36960488  0.70055016
Direct configuration=    15
   0.00000000  0.00000000  0.39128229
   0.25000000  0.00000000  0.39128229
   0.50000000  0.00000000  0.39128229
   0.75000000  0.00000000  0.39128229
   0.00000000  0.50000000  0.39128229
   0.25000000  0.50000000  0.39128229
   0.50000000  0.50000000  0.39128229
   0.75000000  0.50000000  0.39128229
   0.08333333  0.16666667  0.46376076
   0.33333333  0.16666667  0.46376076
   0.58333333  0.16666667  0.46376076
   0.83333333  0.16666667  0.46376076
   0.08333333  0.66666667  0.46376076
   0.33333333  0.66666667  0.46376076
   0.58333333  0.66666667  0.46376076
   0.83333333  0.66666667  0.46376076
   0.93823747  0.31197792  0.53749830
   0.16407816  0.35019823  0.53205074
   0.39443857  0.35913566  0.53362609
   0.67261689  0.32081867  0.54555729
   0.92798813  0.82266629  0.53713912
   0.16561583  0.82157693  0.53280463
   0.40566832  0.84325353  0.53769105
   0.66829861  0.83922549  0.54620058
   0.01991477  0.97646204  0.60401973
   0.23186815  0.02545952  0.60511766
   0.47685477  0.04241204  0.61360460
   0.77153525  0.97654333  0.62165938
   0.01422342  0.49168893  0.60420131
   0.24767073  0.49751089  0.61038690
   0.49476860  0.53473334  0.61513498
   0.77070504  0.48388344  0.62188104
   0.38437665  0.34644294  0.66187036
   0.39900042  0.36812748  0.69911917
Direct configuration=    16
   0.00000000  0.00000000  0.39128229
   0.25000000  0.00000000  0.39128229
   0.50000000  0.00000000  0.39128229
   0.75000000  0.00000000  0.39128229
   0.00000000  0.50000000  0.39128229
   0.25000000  0.50000000  0.39128229
   0.50000000  0.50000000  0.39128229
   0.75000000  0.50000000  0.39128229
   0.08333333  0.16666667  0.46376076
   0.33333333  0.16666667  0.46376076
   0.58333333  0.16666667  0.46376076
   0.83333333  0.16666667  0.46376076
   0.08333333  0.66666667  0.46376076
   0.33333333  0.66666667  0.46376076
   0.58333333  0.66666667  0.46376076
   0.83333333  0.66666667  0.46376076
   0.93834520  0.31191109  0.53753903
   0.16326720  0.35094463  0.53251003
   0.39466864  0.35826818  0.53370163
   0.67257062  0.32222079  0.54488361
   0.92956302  0.82092375  0.53719578
   0.16491534  0.82233510  0.53317953
   0.40419393  0.84523848  0.53759001
   0.66821872  0.83780840  0.54549753
   0.01925258  0.97767608  0.60412276
   0.23209273  0.02552657  0.60529900
   0.47805656  0.03894637  0.61320308
   0.77098234  0.97775682  0.62099401
   0.01453831  0.49052577  0.60428482
   0.24718216  0.49758496  0.61017446
   0.49389589  0.53304853  0.61507971
   0.76986329  0.48366320  0.62115959
   0.38578133  0.34935137  0.66199929
   0.40011291  0.36895265  0.69991842
Direct configuration=    17
   0.00000000  0.00000000  0.39128229
   0.25000000  0.00000000  0.39128229
   0.50000000  0.00000000  0.39128229
   0.75000000  0.00000000  0.39128229
   0.00000000  0.50000000  0.39128229
   0.25000000  0.50000000  0.39128229
   0.50000000  0.50000000  0.39128229
   0.75000000  0.50000000  0.39128229
   0.08333333  0.16666667  0.46376076
   0.33333333  0.16666667  0.46376076
   0.58333333  0.16666667  0.46376076
   0.83333333  0.16666667  0.46376076
   0.08333333  0.66666667  0.46376076
   0.33333333  0.66666667  0.46376076
   0.58333333  0.66666667  0.46376076
   0.83333333  0.66666667  0.46376076
   0.93830694  0.31194676  0.53753573
   0.16326334  0.35085869  0.53251499
   0.39476976  0.35807350  0.53370925
   0.67266665  0.32231844  0.54483761
   0.92956957  0.82091813  0.53719189
   0.16487736  0.82245384  0.53317668
   0.40418939  0.84539500  0.53758571
   0.66821773  0.83761942  0.54548721
   0.01918437  0.97769963  0.60412229
   0.23216526  0.02543258  0.60528017
   0.47806353  0.03906303  0.61321819
   0.77098829  0.97784763  0.62102092
   0.01452532  0.49058508  0.60427776
   0.24716896  0.49769128  0.61016863
   0.49385261  0.53306206  0.61511679
   0.76991349  0.48356180  0.62117516
   0.38578555  0.34921504  0.66198240
   0.40001991  0.36890486  0.69989178
Direct configuration=    18
   0.00000000  0.00000000  0.39128229
   0.25000000  0.00000000  0.39128229
   0.50000000  0.00000000  0.39128229
   0.75000000  0.00000000  0.39128229
   0.00000000  0.50000000  0.39128229
   0.25000000  0.50000000  0.39128229
   0.50000000  0.50000000  0.39128229
   0.75000000  0.50000000  0.39128229
   0.08333333  0.16666667  0.46376076
   0.33333333  0.16666667  0.46376076
   0.58333333  0.16666667  0.46376076
   0.83333333  0.16666667  0.46376076
   0.08333333  0.66666667  0.46376076
   0.33333333  0.66666667  0.46376076
   0.58333333  0.66666667  0.46376076
   0.83333333  0.66666667  0.46376076
   0.93819219  0.31205378  0.53752581
   0.16325173  0.35060087  0.53252987
   0.39507313  0.35748945  0.53373209
   0.67295473  0.32261139  0.54469960
   0.92958922  0.82090126  0.53718022
   0.16476342  0.82281004  0.53316812
   0.40417575  0.84586457  0.53757281
   0.66821476  0.83705249  0.54545624
   0.01897972  0.97777028  0.60412089
   0.23238283  0.02515059  0.60522370
   0.47808445  0.03941303  0.61326352
   0.77100615  0.97812006  0.62110166
   0.01448636  0.49076299  0.60425656
   0.24712935  0.49801023  0.61015112
   0.49372275  0.53310265  0.61522804
   0.77006410  0.48325760  0.62122188
   0.38579824  0.34880606  0.66193174
   0.39974090  0.36876150  0.69981186
Direct configuration=    19
   0.00000000  0.00000000  0.39128229
   0.25000000  0.00000000  0.39128229
   0.50000000  0.00000000  0.39128229
   0.75000000  0.00000000  0.39128229
   0.00000000  0.50000000  0.39128229
   0.25000000  0.50000000  0.39128229
   0.50000000  0.50000000  0.39128229
   0.75000000  0.50000000  0.39128229
   0.08333333  0.16666667  0.46376076
   0.33333333  0.16666667  0.46376076
   0.58333333  0.16666667  0.46376076
   0.83333333  0.16666667  0.46376076
   0.08333333  0.66666667  0.46376076
   0.33333333  0.66666667  0.46376076
   0.58333333  0.66666667  0.46376076
   0.83333333  0.66666667  0.46376076
   0.93796267  0.31226781  0.53750599
   0.16322853  0.35008522  0.53255963
   0.39567986  0.35632137  0.53377778
   0.67353090  0.32319729  0.54442357
   0.92962852  0.82086751  0.53715688
   0.16453554  0.82352245  0.53315099
   0.40414848  0.84680372  0.53754701
   0.66820882  0.83591864  0.54539430
   0.01857044  0.97791158  0.60411809
   0.23281797  0.02458661  0.60511075
   0.47812629  0.04011303  0.61335417
   0.77104186  0.97866492  0.62126314
   0.01440844  0.49111883  0.60421417
   0.24705012  0.49864812  0.61011610
   0.49346304  0.53318384  0.61545055
   0.77036533  0.48264920  0.62131531
   0.38582360  0.34798809  0.66183042
   0.39918288  0.36847477  0.69965203
Direct configuration=    20
   0.00000000  0.00000000  0.39128229
   0.25000000  0.00000000  0.39128229
   0.50000000  0.00000000  0.39128229
   0.75000000  0.00000000  0.39128229
   0.00000000  0.50000000  0.39128229
   0.25000000  0.50000000  0.39128229
   0.50000000  0.50000000  0.39128229
   0.75000000  0.50000000  0.39128229
   0.08333333  0.16666667  0.46376076
   0.33333333  0.16666667  0.46376076
   0.58333333  0.16666667  0.46376076
   0.83333333  0.16666667  0.46376076
   0.08333333  0.66666667  0.46376076
   0.33333333  0.66666667  0.46376076
   0.58333333  0.66666667  0.46376076
   0.83333333  0.66666667  0.46376076
   0.93750365  0.31269587  0.53746635
   0.16318212  0.34905393  0.53261914
   0.39689331  0.35398521  0.53386916
   0.67468324  0.32436909  0.54387153
   0.92970712  0.82080001  0.53711019
   0.16407978  0.82494727  0.53311674
   0.40409394  0.84868201  0.53749540
   0.66819693  0.83365094  0.54527043
   0.01775187  0.97819419  0.60411249
   0.23368825  0.02345864  0.60488485
   0.47820997  0.04151304  0.61353548
   0.77111328  0.97975463  0.62158609
   0.01425260  0.49183049  0.60412938
   0.24689167  0.49992391  0.61004606
   0.49294363  0.53334621  0.61589555
   0.77096778  0.48143240  0.62150219
   0.38587433  0.34635216  0.66162779
   0.39806684  0.36790132  0.69933236
Direct configuration=    21
   0.00000000  0.00000000  0.39128229
   0.25000000  0.00000000  0.39128229
   0.50000000  0.00000000  0.39128229
   0.75000000  0.00000000  0.39128229
   0.00000000  0.50000000  0.39128229
   0.25000000  0.50000000  0.39128229
   0.50000000  0.50000000  0.39128229
   0.75000000  0.50000000  0.39128229
   0.08333333  0.16666667  0.46376076
   0.33333333  0.16666667  0.46376076
   0.58333333  0.16666667  0.46376076
   0.83333333  0.16666667  0.46376076
   0.08333333  0.66666667  0.46376076
   0.33333333  0.66666667  0.46376076
   0.58333333  0.66666667  0.46376076
   0.83333333  0.66666667  0.46376076
   0.93658560  0.31355200  0.53738705
   0.16308929  0.34699135  0.53273817
   0.39932023  0.34931289  0.53405191
   0.67698792  0.32671269  0.54276743
   0.92986432  0.82066502  0.53701681
   0.16316826  0.82779690  0.53304823
   0.40398485  0.85243859  0.53739219
   0.66817316  0.82911553  0.54502268
   0.01611472  0.97875940  0.60410130
   0.23542882  0.02120272  0.60443305
   0.47837734  0.04431304  0.61389809
   0.77125613  0.98193407  0.62223199
   0.01394091  0.49325383  0.60395980
   0.24657477  0.50247550  0.60990598
   0.49190479  0.53367095  0.61678556
   0.77217268  0.47899879  0.62187593
   0.38597579  0.34308030  0.66122252
   0.39583477  0.36675441  0.69869301
Direct configuration=    22
   0.00000000  0.00000000  0.39128229
   0.25000000  0.00000000  0.39128229
   0.50000000  0.00000000  0.39128229
   0.75000000  0.00000000  0.39128229
   0.00000000  0.50000000  0.39128229
   0.25000000  0.50000000  0.39128229
   0.50000000  0.50000000  0.39128229
   0.75000000  0.50000000  0.39128229
   0.08333333  0.16666667  0.46376076
   0.33333333  0.16666667  0.46376076
   0.58333333  0.16666667  0.46376076
   0.83333333  0.16666667  0.46376076
   0.08333333  0.66666667  0.46376076
   0.33333333  0.66666667  0.46376076
   0.58333333  0.66666667  0.46376076
   0.83333333  0.66666667  0.46376076
   0.93713605  0.31303867  0.53743460
   0.16314495  0.34822805  0.53266680
   0.39786507  0.35211437  0.53394234
   0.67560606  0.32530749  0.54342944
   0.92977006  0.82074596  0.53707280
   0.16371480  0.82608829  0.53308930
   0.40405026  0.85018618  0.53745408
   0.66818741  0.83183491  0.54517123
   0.01709634  0.97842050  0.60410801
   0.23438519  0.02255535  0.60470394
   0.47827699  0.04263418  0.61368067
   0.77117048  0.98062730  0.62184471
   0.01412779  0.49240041  0.60406148
   0.24676478  0.50094559  0.60998997
   0.49252767  0.53347624  0.61625192
   0.77145023  0.48045796  0.62165184
   0.38591495  0.34504208  0.66146552
   0.39717310  0.36744208  0.69907636
Direct configuration=    23
   0.00000000  0.00000000  0.39128229
   0.25000000  0.00000000  0.39128229
   0.50000000  0.00000000  0.39128229
   0.75000000  0.00000000  0.39128229
   0.00000000  0.50000000  0.39128229
   0.25000000  0.50000000  0.39128229
   0.50000000  0.50000000  0.39128229
   0.75000000  0.50000000  0.39128229
   0.08333333  0.16666667  0.46376076
   0.33333333  0.16666667  0.46376076
   0.58333333  0.16666667  0.46376076
   0.83333333  0.16666667  0.46376076
   0.08333333  0.66666667  0.46376076
   0.33333333  0.66666667  0.46376076