  18  18   1   0
  0.4676119E+02  0.5610892E-09  0.5610892E-09  0.3087191E-08  0.5000000E-15
   1.0000000000000000E-004
  CAR 
 Cu-Ag alloy CO adsorption (RPBE, matches
      7.34304549    -26.32023383  301     -0.45840246      1.00000000
    -26.320  0.0000E+00  0.0000E+00
    -26.208  0.0000E+00  0.0000E+00
    -26.096  0.0000E+00  0.0000E+00
    -25.984  0.0000E+00  0.0000E+00
    -25.871  0.0000E+00  0.0000E+00
    -25.759  0.0000E+00  0.0000E+00
    -25.647  0.0000E+00  0.0000E+00
    -25.535  0.0000E+00  0.0000E+00
    -25.423  0.0000E+00  0.0000E+00
    -25.310  0.8144E-14  0.9138E-15
    -25.198  0.3451E-09  0.3872E-10
    -25.086  0.1259E-05  0.1413E-06
    -24.974  0.4140E-03  0.4659E-04
    -24.861  0.1344E-01  0.1555E-02
    -24.749  0.5003E-01  0.7169E-02
    -24.637  0.2386E-01  0.9846E-02
    -24.525  0.1361E-02  0.9999E-02
    -24.413  0.7955E-05  0.1000E-01
    -24.300  0.4272E-08  0.1000E-01
    -24.188  0.1994E-12  0.1000E-01
    -24.076  0.0000E+00  0.1000E-01
    -23.964  0.0000E+00  0.1000E-01
    -23.852  0.0000E+00  0.1000E-01
    -23.739  0.0000E+00  0.1000E-01
    -23.627  0.0000E+00  0.1000E-01
    -23.515  0.0000E+00  0.1000E-01
    -23.403  0.0000E+00  0.1000E-01
    -23.291  0.0000E+00  0.1000E-01
    -23.178  0.0000E+00  0.1000E-01
    -23.066  0.0000E+00  0.1000E-01
    -22.954  0.0000E+00  0.1000E-01
    -22.842  0.0000E+00  0.1000E-01
    -22.729  0.0000E+00  0.1000E-01
    -22.617  0.0000E+00  0.1000E-01
    -22.505  0.0000E+00  0.1000E-01
    -22.393  0.0000E+00  0.1000E-01
    -22.281  0.0000E+00  0.1000E-01
    -22.168  0.0000E+00  0.1000E-01
    -22.056  0.0000E+00  0.1000E-01
    -21.944  0.0000E+00  0.1000E-01
    -21.832  0.0000E+00  0.1000E-01
    -21.720  0.0000E+00  0.1000E-01
    -21.607  0.0000E+00  0.1000E-01
    -21.495  0.0000E+00  0.1000E-01
    -21.383  0.0000E+00  0.1000E-01
    -21.271  0.0000E+00  0.1000E-01
    -21.159  0.0000E+00  0.1000E-01
    -21.046  0.0000E+00  0.1000E-01
    -20.934  0.0000E+00  0.1000E-01
    -20.822  0.0000E+00  0.1000E-01
    -20.710  0.0000E+00  0.1000E-01
    -20.597  0.0000E+00  0.1000E-01
    -20.485  0.0000E+00  0.1000E-01
    -20.373  0.0000E+00  0.1000E-01
    -20.261  0.0000E+00  0.1000E-01
    -20.149  0.0000E+00  0.1000E-01
    -20.036  0.0000E+00  0.1000E-01
    -19.924  0.0000E+00  0.1000E-01
    -19.812  0.0000E+00  0.1000E-01
    -19.700  0.0000E+00  0.1000E-01
    -19.588  0.0000E+00  0.1000E-01
    -19.475  0.0000E+00  0.1000E-01
    -19.363  0.0000E+00  0.1000E-01
    -19.251  0.0000E+00  0.1000E-01
    -19.139  0.0000E+00  0.1000E-01
    -19.027  0.0000E+00  0.1000E-01
    -18.914  0.0000E+00  0.1000E-01
    -18.802  0.0000E+00  0.1000E-01
    -18.690  0.0000E+00  0.1000E-01
    -18.578  0.0000E+00  0.1000E-01
    -18.465  0.0000E+00  0.1000E-01
    -18.353  0.0000E+00  0.1000E-01
    -18.241  0.0000E+00  0.1000E-01
    -18.129  0.0000E+00  0.1000E-01
    -18.017  0.0000E+00  0.1000E-01
    -17.904  0.0000E+00  0.1000E-01
    -17.792  0.0000E+00  0.1000E-01
    -17.680  0.0000E+00  0.1000E-01
    -17.568  0.0000E+00  0.1000E-01
    -17.456  0.0000E+00  0.1000E-01
    -17.343  0.0000E+00  0.1000E-01
    -17.231  0.0000E+00  0.1000E-01
    -17.119  0.0000E+00  0.1000E-01
    -17.007  0.0000E+00  0.1000E-01
    -16.895  0.0000E+00  0.1000E-01
    -16.782  0.0000E+00  0.1000E-01
    -16.670  0.0000E+00  0.1000E-01
    -16.558  0.0000E+00  0.1000E-01
    -16.446  0.0000E+00  0.1000E-01
    -16.333  0.0000E+00  0.1000E-01
    -16.221  0.0000E+00  0.1000E-01
    -16.109  0.0000E+00  0.1000E-01
    -15.997  0.0000E+00  0.1000E-01
    -15.885  0.0000E+00  0.1000E-01
    -15.772  0.0000E+00  0.1000E-01
    -15.660  0.0000E+00  0.1000E-01
    -15.548  0.0000E+00  0.1000E-01
    -15.436  0.0000E+00  0.1000E-01
    -15.324  0.0000E+00  0.1000E-01
    -15.211  0.0000E+00  0.1000E-01
    -15.099  0.0000E+00  0.1000E-01
    -14.987  0.0000E+00  0.1000E-01
    -14.875  0.0000E+00  0.1000E-01
    -14.763  0.0000E+00  0.1000E-01
    -14.650  0.0000E+00  0.1000E-01
    -14.538  0.0000E+00  0.1000E-01
    -14.426  0.0000E+00  0.1000E-01
    -14.314  0.0000E+00  0.1000E-01
    -14.201  0.0000E+00  0.1000E-01
    -14.089  0.0000E+00  0.1000E-01
    -13.977  0.0000E+00  0.1000E-01
    -13.865  0.0000E+00  0.1000E-01
    -13.753  0.0000E+00  0.1000E-01
    -13.640  0.0000E+00  0.1000E-01
    -13.528  0.0000E+00  0.1000E-01
    -13.416  0.0000E+00  0.1000E-01
    -13.304  0.0000E+00  0.1000E-01
    -13.192  0.0000E+00  0.1000E-01
    -13.079  0.0000E+00  0.1000E-01
    -12.967  0.0000E+00  0.1000E-01
    -12.855  0.0000E+00  0.1000E-01
    -12.743  0.0000E+00  0.1000E-01
    -12.631  0.0000E+00  0.1000E-01
    -12.518  0.0000E+00  0.1000E-01
    -12.406  0.0000E+00  0.1000E-01
    -12.294  0.0000E+00  0.1000E-01
    -12.182  0.0000E+00  0.1000E-01
    -12.069  0.0000E+00  0.1000E-01
    -11.957  0.0000E+00  0.1000E-01
    -11.845  0.0000E+00  0.1000E-01
    -11.733  0.0000E+00  0.1000E-01
    -11.621  0.0000E+00  0.1000E-01
    -11.508  0.0000E+00  0.1000E-01
    -11.396  0.0000E+00  0.1000E-01
    -11.284  0.0000E+00  0.1000E-01
    -11.172  0.0000E+00  0.1000E-01
    -11.060  0.0000E+00  0.1000E-01
    -10.947  0.4947E-17  0.1000E-01
    -10.835  0.8990E-12  0.1000E-01
    -10.723  0.1260E-07  0.1000E-01
    -10.611  0.1628E-04  0.1000E-01
    -10.498  0.2051E-02  0.1023E-01
    -10.386  0.2803E-01  0.1338E-01
    -10.274  0.4798E-01  0.1876E-01
    -10.162  0.1076E-01  0.1997E-01
    -10.050  0.2798E-03  0.2000E-01
     -9.937  0.7298E-06  0.2000E-01
     -9.825  0.1743E-09  0.2000E-01
     -9.713  0.3639E-14  0.2000E-01
     -9.601  0.0000E+00  0.2000E-01
     -9.489  0.0000E+00  0.2000E-01
     -9.376  0.0000E+00  0.2000E-01
     -9.264  0.0000E+00  0.2000E-01
     -9.152  0.0000E+00  0.2000E-01
     -9.040  0.0000E+00  0.2000E-01
     -8.928  0.0000E+00  0.2000E-01
     -8.815  0.0000E+00  0.2000E-01
     -8.703  0.0000E+00  0.2000E-01
     -8.591  0.3692E-15  0.2000E-01
     -8.479  0.1672E-10  0.2000E-01
     -8.366  0.6512E-07  0.2000E-01
     -8.254  0.2283E-04  0.2000E-01
     -8.142  0.7884E-03  0.2009E-01
     -8.030  0.3348E-02  0.2047E-01
     -7.918  0.8067E-02  0.2137E-01
     -7.805  0.2538E-01  0.2422E-01
     -7.693  0.3733E-01  0.2841E-01
     -7.581  0.3578E-01  0.3242E-01
     -7.469  0.9910E-01  0.4354E-01
     -7.357  0.8429E-01  0.5300E-01
     -7.244  0.1196E-01  0.5434E-01
     -7.132  0.2780E-03  0.5438E-01
     -7.020  0.6372E-03  0.5445E-01
     -6.908  0.5275E-02  0.5504E-01
     -6.796  0.1620E-01  0.5686E-01
     -6.683  0.4690E-01  0.6212E-01
     -6.571  0.7592E-01  0.7064E-01
     -6.459  0.8478E-01  0.8015E-01
     -6.347  0.1085E+00  0.9233E-01
     -6.234  0.1619E+00  0.1105E+00
     -6.122  0.1986E+00  0.1328E+00
     -6.010  0.1892E+00  0.1540E+00
     -5.898  0.1926E+00  0.1756E+00
     -5.786  0.2069E+00  0.1988E+00
     -5.673  0.2029E+00  0.2216E+00
     -5.561  0.1821E+00  0.2420E+00
     -5.449  0.1595E+00  0.2599E+00
     -5.337  0.1718E+00  0.2792E+00
     -5.225  0.1842E+00  0.2999E+00
     -5.112  0.1787E+00  0.3199E+00
     -5.000  0.1911E+00  0.3414E+00
     -4.888  0.2117E+00  0.3651E+00
     -4.776  0.2349E+00  0.3915E+00
     -4.664  0.2511E+00  0.4196E+00
     -4.551  0.2409E+00  0.4467E+00
     -4.439  0.2416E+00  0.4738E+00
     -4.327  0.2420E+00  0.5009E+00
     -4.215  0.2375E+00  0.5276E+00
     -4.102  0.2374E+00  0.5542E+00
     -3.990  0.2090E+00  0.5777E+00
     -3.878  0.1945E+00  0.5995E+00
     -3.766  0.1867E+00  0.6205E+00
     -3.654  0.1812E+00  0.6408E+00
     -3.541  0.2015E+00  0.6634E+00
     -3.429  0.1811E+00  0.6837E+00
     -3.317  0.1416E+00  0.6996E+00
     -3.205  0.1012E+00  0.7110E+00
     -3.093  0.7814E-01  0.7198E+00
     -2.980  0.7858E-01  0.7286E+00
     -2.868  0.9622E-01  0.7394E+00
     -2.756  0.1396E+00  0.7550E+00
     -2.644  0.1723E+00  0.7744E+00
     -2.532  0.1811E+00  0.7947E+00
     -2.419  0.2072E+00  0.8179E+00
     -2.307  0.2422E+00  0.8451E+00
     -2.195  0.2145E+00  0.8692E+00
     -2.083  0.1490E+00  0.8859E+00
     -1.970  0.7550E-01  0.8944E+00
     -1.858  0.2487E-01  0.8972E+00
     -1.746  0.2498E-01  0.9000E+00
     -1.634  0.3367E-01  0.9038E+00
     -1.522  0.1933E-01  0.9059E+00
     -1.409  0.3458E-02  0.9063E+00
     -1.297  0.6109E-02  0.9070E+00
     -1.185  0.8469E-02  0.9079E+00
     -1.073  0.2251E-02  0.9082E+00
     -0.961  0.3168E-02  0.9086E+00
     -0.848  0.6859E-02  0.9093E+00
     -0.736  0.3145E-01  0.9129E+00
     -0.624  0.5652E-01  0.9192E+00
     -0.512  0.7090E-01  0.9271E+00
     -0.400  0.4114E-01  0.9318E+00
     -0.287  0.9741E-02  0.9329E+00
     -0.175  0.1753E-01  0.9348E+00
     -0.063  0.4785E-01  0.9402E+00
      0.049  0.4576E-01  0.9453E+00
      0.162  0.3907E-01  0.9497E+00
      0.274  0.2166E-01  0.9521E+00
      0.386  0.2250E-01  0.9547E+00
      0.498  0.9120E-02  0.9557E+00
      0.610  0.4092E-02  0.9562E+00
      0.723  0.6513E-02  0.9569E+00
      0.835  0.2552E-01  0.9597E+00
      0.947  0.4931E-01  0.9653E+00
      1.059  0.4698E-01  0.9706E+00
      1.171  0.3050E-01  0.9740E+00
      1.284  0.2891E-01  0.9772E+00
      1.396  0.1479E-01  0.9789E+00
      1.508  0.1773E-01  0.9809E+00
      1.620  0.3206E-01  0.9845E+00
      1.732  0.4045E-01  0.9890E+00
      1.845  0.3312E-01  0.9927E+00
      1.957  0.1126E-01  0.9940E+00
      2.069  0.1682E-01  0.9959E+00
      2.181  0.2263E-01  0.9984E+00
      2.294  0.3814E-01  0.1003E+01
      2.406  0.4865E-01  0.1008E+01
      2.518  0.4837E-01  0.1014E+01
      2.630  0.3859E-01  0.1018E+01
      2.742  0.1352E-01  0.1019E+01
      2.855  0.1544E-01  0.1021E+01
      2.967  0.2821E-01  0.1024E+01
      3.079  0.3475E-01  0.1028E+01
      3.191  0.3562E-01  0.1032E+01
      3.303  0.2268E-01  0.1035E+01
      3.416  0.1533E-01  0.1036E+01
      3.528  0.2407E-01  0.1039E+01
      3.640  0.2714E-01  0.1042E+01
      3.752  0.1696E-01  0.1044E+01
      3.865  0.1788E-01  0.1046E+01
      3.977  0.3419E-01  0.1050E+01
      4.089  0.5820E-01  0.1057E+01
      4.201  0.5732E-01  0.1063E+01
      4.313  0.4100E-01  0.1068E+01
      4.426  0.1447E-01  0.1069E+01
      4.538  0.2914E-01  0.1072E+01
      4.650  0.5926E-01  0.1079E+01
      4.762  0.6521E-01  0.1086E+01
      4.874  0.4990E-01  0.1092E+01
      4.987  0.2373E-01  0.1095E+01
      5.099  0.3563E-02  0.1095E+01
      5.211  0.1279E-01  0.1096E+01
      5.323  0.3850E-01  0.1101E+01
      5.435  0.3014E-01  0.1104E+01
      5.548  0.1741E-01  0.1106E+01
      5.660  0.9049E-02  0.1107E+01
      5.772  0.1224E-01  0.1109E+01
      5.884  0.1063E-01  0.1110E+01
      5.997  0.2301E-02  0.1110E+01
      6.109  0.6424E-04  0.1110E+01
      6.221  0.1806E-06  0.1110E+01
      6.333  0.4624E-10  0.1110E+01
      6.445  0.1029E-14  0.1110E+01
      6.558  0.0000E+00  0.1110E+01
      6.670  0.0000E+00  0.1110E+01
      6.782  0.0000E+00  0.1110E+01
      6.894  0.0000E+00  0.1110E+01
      7.006  0.0000E+00  0.1110E+01
      7.119  0.0000E+00  0.1110E+01
      7.231  0.0000E+00  0.1110E+01
      7.343  0.0000E+00  0.1110E+01
      7.34304549    -26.32023383  301     -0.45840246      1.00000000
    -26.320  0.0000E+00  0.0000E+00  0.0000E+00  0.0000E+00  0.0000E+00  0.0000E+00  0.0000E+00  0.0000E+00  0.0000E+00
    -26.208  0.0000E+00  0.0000E+00  0.0000E+00  0.0000E+00  0.0000E+00  0.0000E+00  0.0000E+00  0.0000E+00  0.0000E+00
    -26.096  0.0000E+00  0.0000E+00  0.0000E+00  0.0000E+00  0.0000E+00  0.0000E+00  0.0000E+00  0.0000E+00  0.0000E+00
    -25.984  0.0000E+00  0.0000E+00  0.0000E+00  0.0000E+00  0.0000E+00  0.0000E+00  0.0000E+00  0.0000E+00  0.0000E+00
    -25.871  0.0000E+00  0.0000E+00  0.0000E+00  0.0000E+00  0.0000E+00  0.0000E+00  0.0000E+00  0.0000E+00  0.0000E+00
    -25.759  0.0000E+00  0.0000E+00  0.0000E+00  0.0000E+00  0.0000E+00  0.0000E+00  0.0000E+00  0.0000E+00  0.0000E+00
    -25.647  0.0000E+00  0.0000E+00  0.0000E+00  0.0000E+00  0.0000E+00  0.0000E+00  0.0000E+00  0.0000E+00  0.0000E+00
    -25.535  0.0000E+00  0.0000E+00  0.0000E+00  0.0000E+00  0.0000E+00  0.0000E+00  0.0000E+00  0.0000E+00  0.0000E+00
    -25.423  0.0000E+00  0.0000E+00  0.0000E+00  0.0000E+00  0.0000E+00  0.0000E+00  0.0000E+00  0.0000E+00  0.0000E+00
    -25.310  0.3540E-23  0.1797E-22  0.3362E-22  0.3427E-22  0.4694E-24  0.5043E-24  0.9200E-24  0.9848E-24  0.2579E-24
    -25.198  0.1499E-18  0.7608E-18  0.1424E-17  0.1447E-17  0.1987E-19  0.2135E-19  0.3899E-19  0.4171E-19  0.1091E-19
    -25.086  0.5462E-15  0.2773E-14  0.5193E-14  0.5263E-14  0.7241E-16  0.7788E-16  0.1423E-15  0.1521E-15  0.3976E-16
    -24.974  0.1795E-12  0.9109E-12  0.1707E-11  0.1725E-11  0.2379E-13  0.2560E-13  0.4679E-13  0.5001E-13  0.1306E-13
    -24.861  0.5821E-11  0.2955E-10  0.5540E-10  0.5583E-10  0.7716E-12  0.8306E-12  0.1520E-11  0.1623E-11  0.4234E-12
    -24.749  0.2165E-10  0.1099E-09  0.2061E-09  0.2073E-09  0.2870E-11  0.3091E-11  0.5658E-11  0.6040E-11  0.1574E-11
    -24.637  0.1032E-10  0.5236E-10  0.9827E-10  0.9856E-10  0.1367E-11  0.1473E-11  0.2698E-11  0.2880E-11  0.7498E-12
    -24.525  0.5882E-12  0.2985E-11  0.5605E-11  0.5606E-11  0.7794E-13  0.8402E-13  0.1540E-12  0.1642E-12  0.4273E-13
    -24.413  0.3434E-14  0.1743E-13  0.3274E-13  0.3266E-13  0.4550E-15  0.4908E-15  0.9001E-15  0.9595E-15  0.2494E-15
    -24.300  0.1843E-17  0.9349E-17  0.1757E-16  0.1748E-16  0.2441E-18  0.2634E-18  0.4834E-18  0.5151E-18  0.1337E-18
    -24.188  0.8595E-22  0.4360E-21  0.8202E-21  0.8135E-21  0.1138E-22  0.1229E-22  0.2258E-22  0.2404E-22  0.6235E-23
    -24.076  0.0000E+00  0.0000E+00  0.0000E+00  0.0000E+00  0.0000E+00  0.0000E+00  0.0000E+00  0.0000E+00  0.0000E+00
    -23.964  0.0000E+00  0.0000E+00  0.0000E+00  0.0000E+00  0.0000E+00  0.0000E+00  0.0000E+00  0.0000E+00  0.0000E+00
    -23.852  0.0000E+00  0.0000E+00  0.0000E+00  0.0000E+00  0.0000E+00  0.0000E+00  0.0000E+00  0.0000E+00  0.0000E+00
    -23.739  0.0000E+00  0.0000E+00  0.0000E+00  0.0000E+00  0.0000E+00  0.0000E+00  0.0000E+00  0.0000E+00  0.0000E+00
    -23.627  0.0000E+00  0.0000E+00  0.0000E+00  0.0000E+00  0.0000E+00  0.0000E+00  0.0000E+00  0.0000E+00  0.0000E+00
    -23.515  0.0000E+00  0.0000E+00  0.0000E+00  0.0000E+00  0.0000E+00  0.0000E+00  0.0000E+00  0.0000E+00  0.0000E+00
    -23.403  0.0000E+00  0.0000E+00  0.0000E+00  0.0000E+00  0.0000E+00  0.0000E+00  0.0000E+00  0.0000E+00  0.0000E+00
    -23.291  0.0000E+00  0.0000E+00  0.0000E+00  0.0000E+00  0.0000E+00  0.0000E+00  0.0000E+00  0.0000E+00  0.0000E+00
    -23.178  0.0000E+00  0.0000E+00  0.0000E+00  0.0000E+00  0.0000E+00  0.0000E+00  0.0000E+00  0.0000E+00  0.0000E+00
    -23.066  0.0000E+00  0.0000E+00  0.0000E+00  0.0000E+00  0.0000E+00  0.0000E+00  0.0000E+00  0.0000E+00  0.0000E+00
    -22.954  0.0000E+00  0.0000E+00  0.0000E+00  0.0000E+00  0.0000E+00  0.0000E+00  0.0000E+00  0.0000E+00  0.0000E+00
    -22.842  0.0000E+00  0.0000E+00  0.0000E+00  0.0000E+00  0.0000E+00  0.0000E+00  0.0000E+00  0.0000E+00  0.0000E+00
    -22.729  0.0000E+00  0.0000E+00  0.0000E+00  0.0000E+00  0.0000E+00  0.0000E+00  0.0000E+00  0.0000E+00  0.0000E+00
    -22.617  0.0000E+00  0.0000E+00  0.0000E+00  0.0000E+00  0.0000E+00  0.0000E+00  0.0000E+00  0.0000E+00  0.0000E+00
    -22.505  0.0000E+00  0.0000E+00  0.0000E+00  0.0000E+00  0.0000E+00  0.0000E+00  0.0000E+00  0.0000E+00  0.0000E+00
    -22.393  0.0000E+00  0.0000E+00  0.0000E+00  0.0000E+00  0.0000E+00  0.0000E+00  0.0000E+00  0.0000E+00  0.0000E+00
    -22.281  0.0000E+00  0.0000E+00  0.0000E+00  0.0000E+00  0.0000E+00  0.0000E+00  0.0000E+00  0.0000E+00  0.0000E+00
    -22.168  0.0000E+00  0.0000E+00  0.0000E+00  0.0000E+00  0.0000E+00  0.0000E+00  0.0000E+00  0.0000E+00  0.0000E+00
    -22.056  0.0000E+00  0.0000E+00  0.0000E+00  0.0000E+00  0.0000E+00  0.0000E+00  0.0000E+00  0.0000E+00  0.0000E+00
    -21.944  0.0000E+00  0.0000E+00  0.0000E+00  0.0000E+00  0.0000E+00  0.0000E+00  0.0000E+00  0.0000E+00  0.0000E+00
    -21.832  0.0000E+00  0.0000E+00  0.0000E+00  0.0000E+00  0.0000E+00  0.0000E+00  0.0000E+00  0.0000E+00  0.0000E+00
    -21.720  0.0000E+00  0.0000E+00  0.0000E+00  0.0000E+00  0.0000E+00  0.0000E+00  0.0000E+00  0.0000E+00  0.0000E+00
    -21.607  0.0000E+00  0.0000E+00  0.0000E+00  0.0000E+00  0.0000E+00  0.0000E+00  0.0000E+00  0.0000E+00  0.0000E+00
    -21.495  0.0000E+00  0.0000E+00  0.0000E+00  0.0000E+00  0.0000E+00  0.0000E+00  0.0000E+00  0.0000E+00  0.0000E+00
    -21.383  0.0000E+00  0.0000E+00  0.0000E+00  0.0000E+00  0.0000E+00  0.0000E+00  0.0000E+00  0.0000E+00  0.0000E+00
    -21.271  0.0000E+00  0.0000E+00  0.0000E+00  0.0000E+00  0.0000E+00  0.0000E+00  0.0000E+00  0.0000E+00  0.0000E+00
    -21.159  0.0000E+00  0.0000E+00  0.0000E+00  0.0000E+00  0.0000E+00  0.0000E+00  0.0000E+00  0.0000E+00  0.0000E+00
    -21.046  0.0000E+00  0.0000E+00  0.0000E+00  0.0000E+00  0.0000E+00  0.0000E+00  0.0000E+00  0.0000E+00  0.0000E+00
    -20.934  0.0000E+00  0.0000E+00  0.0000E+00  0.0000E+00  0.0000E+00  0.0000E+00  0.0000E+00  0.0000E+00  0.0000E+00
    -20.822  0.0000E+00  0.0000E+00  0.0000E+00  0.0000E+00  0.0000E+00  0.0000E+00  0.0000E+00  0.0000E+00  0.0000E+00
    -20.710  0.0000E+00  0.0000E+00  0.0000E+00  0.0000E+00  0.0000E+00  0.0000E+00  0.0000E+00  0.0000E+00  0.0000E+00
    -20.597  0.0000E+00  0.0000E+00  0.0000E+00  0.0000E+00  0.0000E+00  0.0000E+00  0.0000E+00  0.0000E+00  0.0000E+00
    -20.485  0.0000E+00  0.0000E+00  0.0000E+00  0.0000E+00  0.0000E+00  0.0000E+00  0.0000E+00  0.0000E+00  0.0000E+00
    -20.373  0.0000E+00  0.0000E+00  0.0000E+00  0.0000E+00  0.0000E+00  0.0000E+00  0.0000E+00  0.0000E+00  0.0000E+00
    -20.261  0.0000E+00  0.0000E+00  0.0000E+00  0.0000E+00  0.0000E+00  0.0000E+00  0.0000E+00  0.0000E+00  0.0000E+00
    -20.149  0.0000E+00  0.0000E+00  0.0000E+00  0.0000E+00  0.0000E+00  0.0000E+00  0.0000E+00  0.0000E+00  0.0000E+00
    -20.036  0.0000E+00  0.0000E+00  0.0000E+00  0.0000E+00  0.0000E+00  0.0000E+00  0.0000E+00  0.0000E+00  0.0000E+00
    -19.924  0.0000E+00  0.0000E+00  0.0000E+00  0.0000E+00  0.0000E+00  0.0000E+00  0.0000E+00  0.0000E+00  0.0000E+00
    -19.812  0.0000E+00  0.0000E+00  0.0000E+00  0.0000E+00  0.0000E+00  0.0000E+00  0.0000E+00  0.0000E+00  0.0000E+00
    -19.700  0.0000E+00  0.0000E+00  0.0000E+00  0.0000E+00  0.0000E+00  0.0000E+00  0.0000E+00  0.0000E+00  0.0000E+00
    -19.588  0.0000E+00  0.0000E+00  0.0000E+00  0.0000E+00  0.0000E+00  0.0000E+00  0.0000E+00  0.0000E+00  0.0000E+00
    -19.475  0.0000E+00  0.0000E+00  0.0000E+00  0.0000E+00  0.0000E+00  0.0000E+00  0.0000E+00  0.0000E+00  0.0000E+00
    -19.363  0.0000E+00  0.0000E+00  0.0000E+00  0.0000E+00  0.0000E+00  0.0000E+00  0.0000E+00  0.0000E+00  0.0000E+00
    -19.251  0.0000E+00  0.0000E+00  0.0000E+00  0.0000E+00  0.0000E+00  0.0000E+00  0.0000E+00  0.0000E+00  0.0000E+00
    -19.139  0.0000E+00  0.0000E+00  0.0000E+00  0.0000E+00  0.0000E+00  0.0000E+00  0.0000E+00  0.0000E+00  0.0000E+00
    -19.027  0.0000E+00  0.0000E+00  0.0000E+00  0.0000E+00  0.0000E+00  0.0000E+00  0.0000E+00  0.0000E+00  0.0000E+00
    -18.914  0.0000E+00  0.0000E+00  0.0000E+00  0.0000E+00  0.0000E+00  0.0000E+00  0.0000E+00  0.0000E+00  0.0000E+00
    -18.802  0.0000E+00  0.0000E+00  0.0000E+00  0.0000E+00  0.0000E+00  0.0000E+00  0.0000E+00  0.0000E+00  0.0000E+00
    -18.690  0.0000E+00  0.0000E+00  0.0000E+00  0.0000E+00  0.0000E+00  0.0000E+00  0.0000E+00  0.0000E+00  0.0000E+00
    -18.578  0.0000E+00  0.0000E+00  0.0000E+00  0.0000E+00  0.0000E+00  0.0000E+00  0.0000E+00  0.0000E+00  0.0000E+00
    -18.465  0.0000E+00  0.0000E+00  0.0000E+00  0.0000E+00  0.0000E+00  0.0000E+00  0.0000E+00  0.0000E+00  0.0000E+00
    -18.353  0.0000E+00  0.0000E+00  0.0000E+00  0.0000E+00  0.0000E+00  0.0000E+00  0.0000E+00  0.0000E+00  0.0000E+00
    -18.241  0.0000E+00  0.0000E+00  0.0000E+00  0.0000E+00  0.0000E+00  0.0000E+00  0.0000E+00  0.0000E+00  0.0000E+00
    -18.129  0.0000E+00  0.0000E+00  0.0000E+00  0.0000E+00  0.0000E+00  0.0000E+00  0.0000E+00  0.0000E+00  0.0000E+00
    -18.017  0.0000E+00  0.0000E+00  0.0000E+00  0.0000E+00  0.0000E+00  0.0000E+00  0.0000E+00  0.0000E+00  0.0000E+00
    -17.904  0.0000E+00  0.0000E+00  0.0000E+00  0.0000E+00  0.0000E+00  0.0000E+00  0.0000E+00  0.0000E+00  0.0000E+00
    -17.792  0.0000E+00  0.0000E+00  0.0000E+00  0.0000E+00  0.0000E+00  0.0000E+00  0.0000E+00  0.0000E+00  0.0000E+00
    -17.680  0.0000E+00  0.0000E+00  0.0000E+00  0.0000E+00  0.0000E+00  0.0000E+00  0.0000E+00  0.0000E+00  0.0000E+00
    -17.568  0.0000E+00  0.0000E+00  0.0000E+00  0.0000E+00  0.0000E+00  0.0000E+00  0.0000E+00  0.0000E+00  0.0000E+00
    -17.456  0.0000E+00  0.0000E+00  0.0000E+00  0.0000E+00  0.0000E+00  0.0000E+00  0.0000E+00  0.0000E+00  0.0000E+00
    -17.343  0.0000E+00  0.0000E+00  0.0000E+00  0.0000E+00  0.0000E+00  0.0000E+00  0.0000E+00  0.0000E+00  0.0000E+00
    -17.231  0.0000E+00  0.0000E+00  0.0000E+00  0.0000E+00  0.0000E+00  0.0000E+00  0.0000E+00  0.0000E+00  0.0000E+00
    -17.119  0.0000E+00  0.0000E+00  0.0000E+00  0.0000E+00  0.0000E+00  0.0000E+00  0.0000E+00  0.0000E+00  0.0000E+00
    -17.007  0.0000E+00  0.0000E+00  0.0000E+00  0.0000E+00  0.0000E+00  0.0000E+00  0.0000E+00  0.0000E+00  0.0000E+00
    -16.895  0.0000E+00  0.0000E+00  0.0000E+00  0.0000E+00  0.0000E+00  0.0000E+00  0.0000E+00  0.0000E+00  0.0000E+00
    -16.782  0.0000E+00  0.0000E+00  0.0000E+00  0.0000E+00  0.0000E+00  0.0000E+00  0.0000E+00  0.0000E+00  0.0000E+00
    -16.670  0.0000E+00  0.0000E+00  0.0000E+00  0.0000E+00  0.0000E+00  0.0000E+00  0.0000E+00  0.0000E+00  0.0000E+00
    -16.558  0.0000E+00  0.0000E+00  0.0000E+00  0.0000E+00  0.0000E+00  0.0000E+00  0.0000E+00  0.0000E+00  0.0000E+00
    -16.446  0.0000E+00  0.0000E+00  0.0000E+00  0.0000E+00  0.0000E+00  0.0000E+00  0.0000E+00  0.0000E+00  0.0000E+00
    -16.333  0.0000E+00  0.0000E+00  0.0000E+00  0.0000E+00  0.0000E+00  0.0000E+00  0.0000E+00  0.0000E+00  0.0000E+00
    -16.221  0.0000E+00  0.0000E+00  0.0000E+00  0.0000E+00  0.0000E+00  0.0000E+00  0.0000E+00  0.0000E+00  0.0000E+00
    -16.109  0.0000E+00  0.0000E+00  0.0000E+00  0.0000E+00  0.0000E+00  0.0000E+00  0.0000E+00  0.0000E+00  0.0000E+00
    -15.997  0.0000E+00  0.0000E+00  0.0000E+00  0.0000E+00  0.0000E+00  0.0000E+00  0.0000E+00  0.0000E+00  0.0000E+00
    -15.885  0.0000E+00  0.0000E+00  0.0000E+00  0.0000E+00  0.0000E+00  0.0000E+00  0.0000E+00  0.0000E+00  0.0000E+00
    -15.772  0.0000E+00  0.0000E+00  0.0000E+00  0.0000E+00  0.0000E+00  0.0000E+00  0.0000E+00  0.0000E+00  0.0000E+00
    -15.660  0.0000E+00  0.0000E+00  0.0000E+00  0.0000E+00  0.0000E+00  0.0000E+00  0.0000E+00  0.0000E+00  0.0000E+00
    -15.548  0.0000E+00  0.0000E+00  0.0000E+00  0.0000E+00  0.0000E+00  0.0000E+00  0.0000E+00  0.0000E+00  0.0000E+00
    -15.436  0.0000E+00  0.0000E+00  0.0000E+00  0.0000E+00  0.0000E+00  0.0000E+00  0.0000E+00  0.0000E+00  0.0000E+00
    -15.324  0.0000E+00  0.0000E+00  0.0000E+00  0.0000E+00  0.0000E+00  0.0000E+00  0.0000E+00  0.0000E+00  0.0000E+00
    -15.211  0.0000E+00  0.0000E+00  0.0000E+00  0.0000E+00  0.0000E+00  0.0000E+00  0.0000E+00  0.0000E+00  0.0000E+00
    -15.099  0.0000E+00  0.0000E+00  0.0000E+00  0.0000E+00  0.0000E+00  0.0000E+00  0.0000E+00  0.0000E+00  0.0000E+00
    -14.987  0.0000E+00  0.0000E+00  0.0000E+00  0.0000E+00  0.0000E+00  0.0000E+00  0.0000E+00  0.0000E+00  0.0000E+00
    -14.875  0.0000E+00  0.0000E+00  0.0000E+00  0.0000E+00  0.0000E+00  0.0000E+00  0.0000E+00  0.0000E+00  0.0000E+00
    -14.763  0.0000E+00  0.0000E+00  0.0000E+00  0.0000E+00  0.0000E+00  0.0000E+00  0.0000E+00  0.0000E+00  0.0000E+00
    -14.650  0.0000E+00  0.0000E+00  0.0000E+00  0.0000E+00  0.0000E+00  0.0000E+00  0.0000E+00  0.0000E+00  0.0000E+00
    -14.538  0.0000E+00  0.0000E+00  0.0000E+00  0.0000E+00  0.0000E+00  0.0000E+00  0.0000E+00  0.0000E+00  0.0000E+00
    -14.426  0.0000E+00  0.0000E+00  0.0000E+00  0.0000E+00  0.0000E+00  0.0000E+00  0.0000E+00  0.0000E+00  0.0000E+00
    -14.314  0.0000E+00  0.0000E+00  0.0000E+00  0.0000E+00  0.0000E+00  0.0000E+00  0.0000E+00  0.0000E+00  0.0000E+00
    -14.201  0.0000E+00  0.0000E+00  0.0000E+00  0.0000E+00  0.0000E+00  0.0000E+00  0.0000E+00  0.0000E+00  0.0000E+00
    -14.089  0.0000E+00  0.0000E+00  0.0000E+00  0.0000E+00  0.0000E+00  0.0000E+00  0.0000E+00  0.0000E+00  0.0000E+00
    -13.977  0.0000E+00  0.0000E+00  0.0000E+00  0.0000E+00  0.0000E+00  0.0000E+00  0.0000E+00  0.0000E+00  0.0000E+00
    -13.865  0.0000E+00  0.0000E+00  0.0000E+00  0.0000E+00  0.0000E+00  0.0000E+00  0.0000E+00  0.0000E+00  0.0000E+00
    -13.753  0.0000E+00  0.0000E+00  0.0000E+00  0.0000E+00  0.0000E+00  0.0000E+00  0.0000E+00  0.0000E+00  0.0000E+00
    -13.640  0.0000E+00  0.0000E+00  0.0000E+00  0.0000E+00  0.0000E+00  0.0000E+00  0.0000E+00  0.0000E+00  0.0000E+00
    -13.528  0.0000E+00  0.0000E+00  0.0000E+00  0.0000E+00  0.0000E+00  0.0000E+00  0.0000E+00  0.0000E+00  0.0000E+00
    -13.416  0.0000E+00  0.0000E+00  0.0000E+00  0.0000E+00  0.0000E+00  0.0000E+00  0.0000E+00  0.0000E+00  0.0000E+00
    -13.304  0.0000E+00  0.0000E+00  0.0000E+00  0.0000E+00  0.0000E+00  0.0000E+00  0.0000E+00  0.0000E+00  0.0000E+00
    -13.192  0.0000E+00  0.0000E+00  0.0000E+00  0.0000E+00  0.0000E+00  0.0000E+00  0.0000E+00  0.0000E+00  0.0000E+00
    -13.079  0.0000E+00  0.0000E+00  0.0000E+00  0.0000E+00  0.0000E+00  0.0000E+00  0.0000E+00  0.0000E+00  0.0000E+00
    -12.967  0.0000E+00  0.0000E+00  0.0000E+00  0.0000E+00  0.0000E+00  0.0000E+00  0.0000E+00  0.0000E+00  0.0000E+00
    -12.855  0.0000E+00  0.0000E+00  0.0000E+00  0.0000E+00  0.0000E+00  0.0000E+00  0.0000E+00  0.0000E+00  0.0000E+00
    -12.743  0.0000E+00  0.0000E+00  0.0000E+00  0.0000E+00  0.0000E+00  0.0000E+00  0.0000E+00  0.0000E+00  0.0000E+00
    -12.631  0.0000E+00  0.0000E+00  0.0000E+00  0.0000E+00  0.0000E+00  0.0000E+00  0.0000E+00  0.0000E+00  0.0000E+00
    -12.518  0.0000E+00  0.0000E+00  0.0000E+00  0.0000E+00  0.0000E+00  0.0000E+00  0.0000E+00  0.0000E+00  0.0000E+00
    -12.406  0.0000E+00  0.0000E+00  0.0000E+00  0.0000E+00  0.0000E+00  0.0000E+00  0.0000E+00  0.0000E+00  0.0000E+00
    -12.294  0.0000E+00  0.0000E+00  0.0000E+00  0.0000E+00  0.0000E+00  0.0000E+00  0.0000E+00  0.0000E+00  0.0000E+00
    -12.182  0.0000E+00  0.0000E+00  0.0000E+00  0.0000E+00  0.0000E+00  0.0000E+00  0.0000E+00  0.0000E+00  0.0000E+00
    -12.069  0.0000E+00  0.0000E+00  0.0000E+00  0.0000E+00  0.0000E+00  0.0000E+00  0.0000E+00  0.0000E+00  0.0000E+00
    -11.957  0.0000E+00  0.0000E+00  0.0000E+00  0.0000E+00  0.0000E+00  0.0000E+00  0.0000E+00  0.0000E+00  0.0000E+00
    -11.845  0.0000E+00  0.0000E+00  0.0000E+00  0.0000E+00  0.0000E+00  0.0000E+00  0.0000E+00  0.0000E+00  0.0000E+00
    -11.733  0.0000E+00  0.0000E+00  0.0000E+00  0.0000E+00  0.0000E+00  0.0000E+00  0.0000E+00  0.0000E+00  0.0000E+00
    -11.621  0.0000E+00  0.0000E+00  0.0000E+00  0.0000E+00  0.0000E+00  0.0000E+00  0.0000E+00  0.0000E+00  0.0000E+00
    -11.508  0.0000E+00  0.0000E+00  0.0000E+00  0.0000E+00  0.0000E+00  0.0000E+00  0.0000E+00  0.0000E+00  0.0000E+00
    -11.396  0.0000E+00  0.0000E+00  0.0000E+00  0.0000E+00  0.0000E+00  0.0000E+00  0.0000E+00  0.0000E+00  0.0000E+00
    -11.284  0.0000E+00  0.0000E+00  0.0000E+00  0.0000E+00  0.0000E+00  0.0000E+00  0.0000E+00  0.0000E+00  0.0000E+00
    -11.172  0.0000E+00  0.0000E+00  0.0000E+00  0.0000E+00  0.0000E+00  0.0000E+00  0.0000E+00  0.0000E+00  0.0000E+00
    -11.060  0.0000E+00  0.0000E+00  0.0000E+00  0.0000E+00  0.0000E+00  0.0000E+00  0.0000E+00  0.0000E+00  0.0000E+00
    -10.947  0.1608E-21  0.7450E-24  0.3364E-22  0.5210E-24  0.5215E-25  0.4817E-24  0.2109E-23  0.3702E-24  0.3055E-25
    -10.835  0.2184E-16  0.1195E-18  0.4614E-17  0.1181E-18  0.8566E-20  0.7564E-19  0.3000E-18  0.7668E-19  0.5664E-20
    -10.723  0.2529E-12  0.1740E-14  0.5383E-13  0.1747E-14  0.1134E-15  0.1100E-14  0.3617E-14  0.1097E-14  0.8016E-16
    -10.611  0.2648E-09  0.2231E-11  0.5688E-10  0.2274E-11  0.1370E-12  0.1409E-11  0.3961E-11  0.1397E-11  0.1041E-12
    -10.498  0.2680E-07  0.2680E-09  0.5819E-08  0.2772E-09  0.1605E-10  0.1693E-09  0.4205E-09  0.1682E-09  0.1311E-10
    -10.386  0.2959E-06  0.3399E-08  0.6500E-07  0.3564E-08  0.2040E-09  0.2149E-08  0.4867E-08  0.2149E-08  0.1786E-09
    -10.274  0.4131E-06  0.5309E-08  0.9191E-07  0.5633E-08  0.3257E-09  0.3361E-08  0.7115E-08  0.3393E-08  0.3038E-09
    -10.162  0.7525E-07  0.1066E-08  0.1699E-07  0.1145E-08  0.6806E-10  0.6763E-09  0.1360E-08  0.6914E-09  0.6752E-10
    -10.050  0.1577E-08  0.2433E-10  0.3623E-09  0.2645E-10  0.1648E-11  0.1549E-10  0.3004E-10  0.1608E-10  0.1737E-11
     -9.937  0.3318E-11  0.5494E-13  0.7777E-12  0.6045E-13  0.4013E-14  0.3513E-13  0.6675E-13  0.3716E-13  0.4469E-14
     -9.825  0.6476E-15  0.1133E-16  0.1551E-15  0.1262E-16  0.9022E-18  0.7287E-17  0.1376E-16  0.7867E-17  0.1053E-17
     -9.713  0.1125E-19  0.2051E-21  0.2754E-20  0.2312E-21  0.1789E-22  0.1328E-21  0.2522E-21  0.1465E-21  0.2165E-22
     -9.601  0.0000E+00  0.0000E+00  0.0000E+00  0.0000E+00  0.0000E+00  0.0000E+00  0.0000E+00  0.0000E+00  0.0000E+00
     -9.489  0.0000E+00  0.0000E+00  0.0000E+00  0.0000E+00  0.0000E+00  0.0000E+00  0.0000E+00  0.0000E+00  0.0000E+00
     -9.376  0.0000E+00  0.0000E+00  0.0000E+00  0.0000E+00  0.0000E+00  0.0000E+00  0.0000E+00  0.0000E+00  0.0000E+00
     -9.264  0.0000E+00  0.0000E+00  0.0000E+00  0.0000E+00  0.0000E+00  0.0000E+00  0.0000E+00  0.0000E+00  0.0000E+00
     -9.152  0.0000E+00  0.0000E+00  0.0000E+00  0.0000E+00  0.0000E+00  0.0000E+00  0.0000E+00  0.0000E+00  0.0000E+00
     -9.040  0.0000E+00  0.0000E+00  0.0000E+00  0.0000E+00  0.0000E+00  0.0000E+00  0.0000E+00  0.0000E+00  0.0000E+00
     -8.928  0.0000E+00  0.0000E+00  0.0000E+00  0.0000E+00  0.0000E+00  0.0000E+00  0.0000E+00  0.0000E+00  0.0000E+00
     -8.815  0.0000E+00  0.0000E+00  0.0000E+00  0.0000E+00  0.0000E+00  0.0000E+00  0.0000E+00  0.0000E+00  0.0000E+00