   18   18  200    1
  0.4676119E+02  0.5610892E-09  0.5610892E-09  0.3087191E-08  0.5000000E-15
   1.0000000000000000E-004
  CAR 
 Cu-Ag alloy CO adsorption (RPBE, matches
    186     10    111
 
  0.1262379E-14  0.1262379E-14  0.1262379E-14  0.6250000E-01
      1        -24.790085   1.000000
      2        -10.378847   1.000000
      3         -8.067393   1.000000
      4         -7.735218   1.000000
      5         -7.477723   1.000000
      6         -7.463994   1.000000
      7         -6.923628   1.000000
      8         -6.885936   1.000000
      9         -6.733661   1.000000
     10         -6.656747   1.000000
     11         -6.620081   1.000000
     12         -6.572197   1.000000
     13         -6.462821   1.000000
     14         -6.430764   1.000000
     15         -6.368463   1.000000
     16         -6.283752   1.000000
     17         -6.220681   1.000000
     18         -6.145036   1.000000
     19         -6.108957   1.000000
     20         -6.088384   1.000000
     21         -6.020813   1.000000
     22         -6.005642   1.000000
     23         -5.979762   1.000000
     24         -5.912360   1.000000
     25         -5.800835   1.000000
     26         -5.739498   1.000000
     27         -5.584523   1.000000
     28         -5.443730   1.000000
     29         -5.321558   1.000000
     30         -5.271482   1.000000
     31         -5.221187   1.000000
     32         -5.173534   1.000000
     33         -5.084215   1.000000
     34         -4.854590   1.000000
     35         -4.810410   1.000000
     36         -4.769176   1.000000
     37         -4.719620   1.000000
     38         -4.688354   1.000000
     39         -4.637036   1.000000
     40         -4.609366   1.000000
     41         -4.527881   1.000000
     42         -4.519405   1.000000
     43         -4.480892   1.000000
     44         -4.419534   1.000000
     45         -4.383599   1.000000
     46         -4.346135   1.000000
     47         -4.306640   1.000000
     48         -4.257277   1.000000
     49         -4.209998   1.000000
     50         -4.158035   1.000000
     51         -4.106198   1.000000
     52         -4.065045   1.000000
     53         -3.980527   1.000000
     54         -3.925141   1.000000
     55         -3.894620   1.000000
     56         -3.876983   1.000000
     57         -3.836901   1.000000
     58         -3.754333   1.000000
     59         -3.672327   1.000000
     60         -3.649887   1.000000
     61         -3.632621   1.000000
     62         -3.559989   1.000000
     63         -3.519298   1.000000
     64         -3.463868   1.000000
     65         -3.410574   1.000000
     66         -3.330684   1.000000
     67         -3.207598   1.000000
     68         -3.119693   1.000000
     69         -3.083327   1.000000
     70         -3.035295   1.000000
     71         -2.844462   1.000000
     72         -2.825955   1.000000
     73         -2.796131   1.000000
     74         -2.699934   1.000000
     75         -2.688765   1.000000
     76         -2.538660   1.000000
     77         -2.420211   1.000000
     78         -2.380076   1.000000
     79         -2.349229   1.000000
     80         -2.316465   1.000000
     81         -2.253930   1.000000
     82         -2.240672   1.000000
     83         -2.223688   1.000000
     84         -2.204485   1.000000
     85         -2.171584   1.000000
     86         -2.148220   1.000000
     87         -2.132217   1.000000
     88         -2.108969   1.000000
     89         -0.989688   1.000000
     90         -0.473899   0.586735
     91         -0.445241   0.426172
     92         -0.281338   0.006139
     93          0.108299   0.000000
     94          0.145995   0.000000
     95          0.362171   0.000000
     96          0.562574   0.000000
     97          0.706929   0.000000
     98          0.916847   0.000000
     99          1.129225   0.000000
    100          1.160768   0.000000
    101          1.197252   0.000000
    102          1.289482   0.000000
    103          2.606276   0.000000
    104          2.729084   0.000000
    105          3.181401   0.000000
    106          3.625559   0.000000
    107          3.699005   0.000000
    108          3.742871   0.000000
    109          3.846608   0.000000
    110          4.211020   0.000000
    111          4.282009   0.000000
 
  0.2500000E+00  0.1210830E-14  0.1262379E-14  0.1250000E+00
      1        -24.789896   1.000000
      2        -10.363446   1.000000
      3         -7.856820   1.000000
      4         -7.491168   1.000000
      5         -7.470247   1.000000
      6         -7.422493   1.000000
      7         -6.653490   1.000000
      8         -6.606108   1.000000
      9         -6.506268   1.000000
     10         -6.468842   1.000000
     11         -6.426301   1.000000
     12         -6.355028   1.000000
     13         -6.286575   1.000000
     14         -6.267427   1.000000
     15         -6.192803   1.000000
     16         -6.158696   1.000000
     17         -6.082296   1.000000
     18         -6.012435   1.000000
     19         -5.936635   1.000000
     20         -5.921265   1.000000
     21         -5.860153   1.000000
     22         -5.837485   1.000000
     23         -5.793100   1.000000
     24         -5.727236   1.000000
     25         -5.664561   1.000000
     26         -5.584322   1.000000
     27         -5.541249   1.000000
     28         -5.357561   1.000000
     29         -5.301238   1.000000
     30         -5.253557   1.000000
     31         -5.215741   1.000000
     32         -5.129682   1.000000
     33         -5.073375   1.000000
     34         -4.966001   1.000000
     35         -4.868228   1.000000
     36         -4.830131   1.000000
     37         -4.789739   1.000000
     38         -4.739858   1.000000
     39         -4.714903   1.000000
     40         -4.687681   1.000000
     41         -4.644650   1.000000
     42         -4.629549   1.000000
     43         -4.569618   1.000000
     44         -4.530672   1.000000
     45         -4.471458   1.000000
     46         -4.446482   1.000000
     47         -4.399365   1.000000
     48         -4.342707   1.000000
     49         -4.297335   1.000000
     50         -4.265471   1.000000
     51         -4.213156   1.000000
     52         -4.162346   1.000000
     53         -4.120704   1.000000
     54         -4.065345   1.000000
     55         -4.003873   1.000000
     56         -3.988725   1.000000
     57         -3.915044   1.000000
     58         -3.884104   1.000000
     59         -3.824082   1.000000
     60         -3.781774   1.000000
     61         -3.763913   1.000000
     62         -3.701786   1.000000
     63         -3.649123   1.000000
     64         -3.597649   1.000000
     65         -3.581332   1.000000
     66         -3.525184   1.000000
     67         -3.498254   1.000000
     68         -3.431989   1.000000
     69         -3.364663   1.000000
     70         -3.251467   1.000000
     71         -3.080674   1.000000
     72         -3.042791   1.000000
     73         -2.909274   1.000000
     74         -2.815829   1.000000
     75         -2.718561   1.000000
     76         -2.690889   1.000000
     77         -2.598379   1.000000
     78         -2.570411   1.000000
     79         -2.490643   1.000000
     80         -2.429018   1.000000
     81         -2.396643   1.000000
     82         -2.370989   1.000000
     83         -2.346772   1.000000
     84         -2.331657   1.000000
     85         -2.270152   1.000000
     86         -2.247471   1.000000
     87         -2.199027   1.000000
     88         -2.168400   1.000000
     89         -2.059140   1.000000
     90         -1.746457   1.000000
     91         -0.720922   0.999897
     92         -0.567259   0.938155
     93         -0.466059   0.543114
     94         -0.149467   0.000006
     95         -0.077322   0.000000
     96          0.094784   0.000000
     97          0.874320   0.000000
     98          0.938703   0.000000
     99          1.518069   0.000000
    100          1.667984   0.000000
    101          2.253282   0.000000
    102          2.504227   0.000000
    103          2.998208   0.000000
    104          3.191301   0.000000
    105          3.593160   0.000000
    106          4.060881   0.000000
    107          4.148830   0.000000
    108          4.161293   0.000000
    109          4.599081   0.000000
    110          4.638483   0.000000
    111          4.724845   0.000000
 
  0.2500000E+00  0.2500000E+00  0.1262379E-14  0.1250000E+00
      1        -24.789894   1.000000
      2        -10.362695   1.000000
      3         -7.855133   1.000000
      4         -7.493629   1.000000
      5         -7.468761   1.000000
      6         -7.422566   1.000000
      7         -6.653569   1.000000
      8         -6.601957   1.000000
      9         -6.509562   1.000000
     10         -6.470959   1.000000
     11         -6.415054   1.000000
     12         -6.376041   1.000000
     13         -6.300583   1.000000
     14         -6.243636   1.000000
     15         -6.192998   1.000000
     16         -6.127983   1.000000
     17         -6.093405   1.000000
     18         -6.002980   1.000000
     19         -5.951205   1.000000
     20         -5.923630   1.000000
     21         -5.894191   1.000000
     22         -5.829609   1.000000
     23         -5.804261   1.000000
     24         -5.694556   1.000000
     25         -5.685192   1.000000
     26         -5.576149   1.000000
     27         -5.539319   1.000000
     28         -5.423737   1.000000
     29         -5.312174   1.000000
     30         -5.240060   1.000000
     31         -5.181734   1.000000
     32         -5.125541   1.000000
     33         -5.076155   1.000000
     34         -4.991216   1.000000
     35         -4.920113   1.000000
     36         -4.845311   1.000000
     37         -4.797018   1.000000
     38         -4.757900   1.000000
     39         -4.721619   1.000000
     40         -4.673990   1.000000
     41         -4.647285   1.000000
     42         -4.605634   1.000000
     43         -4.574096   1.000000
     44         -4.501058   1.000000
     45         -4.469173   1.000000
     46         -4.447947   1.000000
     47         -4.369975   1.000000
     48         -4.347726   1.000000
     49         -4.289584   1.000000
     50         -4.268721   1.000000
     51         -4.193342   1.000000
     52         -4.143030   1.000000
     53         -4.103525   1.000000
     54         -4.091667   1.000000
     55         -4.036582   1.000000
     56         -3.970594   1.000000
     57         -3.933145   1.000000
     58         -3.887006   1.000000
     59         -3.836940   1.000000
     60         -3.782863   1.000000
     61         -3.742624   1.000000
     62         -3.668887   1.000000
     63         -3.603335   1.000000
     64         -3.570334   1.000000
     65         -3.529012   1.000000
     66         -3.501840   1.000000
     67         -3.483785   1.000000
     68         -3.436292   1.000000
     69         -3.357344   1.000000
     70         -3.309424   1.000000
     71         -3.125589   1.000000
     72         -3.044330   1.000000
     73         -2.907911   1.000000
     74         -2.809193   1.000000
     75         -2.755247   1.000000
     76         -2.727474   1.000000
     77         -2.627025   1.000000
     78         -2.553177   1.000000
     79         -2.484525   1.000000
     80         -2.424533   1.000000
     81         -2.383674   1.000000
     82         -2.363147   1.000000
     83         -2.330346   1.000000
     84         -2.311441   1.000000
     85         -2.273104   1.000000
     86         -2.259396   1.000000
     87         -2.190486   1.000000
     88         -2.160625   1.000000
     89         -2.062127   1.000000
     90         -1.749217   1.000000
     91         -0.698988   0.999666
     92         -0.541202   0.879193
     93         -0.502188   0.732116
     94         -0.127693   0.000001
     95         -0.073020   0.000000
     96          0.103332   0.000000
     97          0.838353   0.000000
     98          0.954894   0.000000
     99          1.514119   0.000000
    100          1.662217   0.000000
    101          2.194783   0.000000
    102          2.522558   0.000000
    103          2.956591   0.000000
    104          3.236487   0.000000
    105          3.578723   0.000000
    106          4.060205   0.000000
    107          4.080593   0.000000
    108          4.259272   0.000000
    109          4.577354   0.000000
    110          4.642228   0.000000
    111          4.719418   0.000000
 
  0.1262379E-14  0.2500000E+00  0.1262379E-14  0.1250000E+00
      1        -24.789898   1.000000
      2        -10.364643   1.000000
      3         -7.860503   1.000000
      4         -7.482293   1.000000
      5         -7.477963   1.000000
      6         -7.420539   1.000000
      7         -6.664602   1.000000
      8         -6.595575   1.000000
      9         -6.529997   1.000000
     10         -6.451404   1.000000
     11         -6.412967   1.000000
     12         -6.352299   1.000000
     13         -6.327121   1.000000
     14         -6.285849   1.000000
     15         -6.223529   1.000000
     16         -6.139245   1.000000
     17         -6.075745   1.000000
     18         -5.999310   1.000000
     19         -5.948309   1.000000
     20         -5.883278   1.000000
     21         -5.848259   1.000000
     22         -5.829317   1.000000
     23         -5.779803   1.000000
     24         -5.713816   1.000000
     25         -5.667548   1.000000
     26         -5.643670   1.000000
     27         -5.476271   1.000000
     28         -5.386709   1.000000
     29         -5.364425   1.000000
     30         -5.253877   1.000000
     31         -5.165763   1.000000
     32         -5.105483   1.000000
     33         -5.050976   1.000000
     34         -4.945937   1.000000
     35         -4.912300   1.000000
     36         -4.894856   1.000000
     37         -4.824026   1.000000
     38         -4.771754   1.000000
     39         -4.749682   1.000000
     40         -4.696863   1.000000
     41         -4.631010   1.000000
     42         -4.604786   1.000000
     43         -4.561400   1.000000
     44         -4.502572   1.000000
     45         -4.454158   1.000000
     46         -4.418761   1.000000
     47         -4.383717   1.000000
     48         -4.328154   1.000000
     49         -4.294348   1.000000
     50         -4.265404   1.000000
     51         -4.187528   1.000000
     52         -4.173060   1.000000
     53         -4.153456   1.000000
     54         -4.092547   1.000000
     55         -4.042798   1.000000
     56         -3.962230   1.000000
     57         -3.926053   1.000000
     58         -3.876464   1.000000
     59         -3.833936   1.000000
     60         -3.793053   1.000000
     61         -3.745933   1.000000
     62         -3.691323   1.000000
     63         -3.602630   1.000000
     64         -3.585256   1.000000
     65         -3.559282   1.000000
     66         -3.531775   1.000000
     67         -3.497544   1.000000
     68         -3.364338   1.000000
     69         -3.322977   1.000000
     70         -3.253696   1.000000
     71         -3.173750   1.000000
     72         -3.036443   1.000000
     73         -2.942294   1.000000
     74         -2.782118   1.000000
     75         -2.751700   1.000000
     76         -2.653989   1.000000
     77         -2.611592   1.000000
     78         -2.559244   1.000000
     79         -2.495800   1.000000
     80         -2.454779   1.000000
     81         -2.386213   1.000000
     82         -2.362733   1.000000
     83         -2.337511   1.000000
     84         -2.318729   1.000000
     85         -2.291263   1.000000
     86         -2.217259   1.000000
     87         -2.197721   1.000000
     88         -2.142309   1.000000
     89         -2.084357   1.000000
     90         -1.748584   1.000000
     91         -0.711663   0.999829
     92         -0.535774   0.863067
     93         -0.497766   0.711130
     94         -0.147256   0.000005
     95         -0.086270   0.000000
     96          0.056168   0.000000
     97          0.856023   0.000000
     98          0.903248   0.000000
     99          1.488611   0.000000
    100          1.682108   0.000000
    101          2.281407   0.000000
    102          2.536697   0.000000
    103          2.973311   0.000000
    104          3.184074   0.000000
    105          3.578391   0.000000
    106          4.062293   0.000000
    107          4.087166   0.000000
    108          4.243196   0.000000
    109          4.535057   0.000000
    110          4.637020   0.000000
    111          4.788068   0.000000
 
  0.5000000E+00  0.1182331E-14  0.1262379E-14  0.6250000E-01
      1        -24.789792   1.000000
      2        -10.348848   1.000000
      3         -7.713181   1.000000
      4         -7.513216   1.000000
      5         -7.474330   1.000000
      6         -6.642053   1.000000
      7         -6.563398   1.000000
      8         -6.380593   1.000000
      9         -6.261451   1.000000
     10         -6.175650   1.000000
     11         -6.119752   1.000000
     12         -6.097524   1.000000
     13         -6.083995   1.000000
     14         -6.023525   1.000000
     15         -5.957560   1.000000
     16         -5.872494   1.000000
     17         -5.793633   1.000000
     18         -5.784975   1.000000
     19         -5.716900   1.000000
     20         -5.676912   1.000000
     21         -5.626002   1.000000
     22         -5.597581   1.000000
     23         -5.584008   1.000000
     24         -5.488648   1.000000
     25         -5.436049   1.000000
     26         -5.396437   1.000000
     27         -5.367564   1.000000
     28         -5.300780   1.000000
     29         -5.284257   1.000000
     30         -5.230233   1.000000
     31         -5.183734   1.000000
     32         -5.089954   1.000000
     33         -5.044215   1.000000
     34         -4.974069   1.000000
     35         -4.957100   1.000000
     36         -4.935192   1.000000
     37         -4.896241   1.000000
     38         -4.846801   1.000000
     39         -4.802572   1.000000
     40         -4.785448   1.000000
     41         -4.751918   1.000000
     42         -4.724227   1.000000
     43         -4.707891   1.000000
     44         -4.679058   1.000000
     45         -4.632929   1.000000
     46         -4.621955   1.000000
     47         -4.587790   1.000000
     48         -4.563982   1.000000
     49         -4.488315   1.000000
     50         -4.456553   1.000000
     51         -4.424516   1.000000
     52         -4.387912   1.000000
     53         -4.346882   1.000000
     54         -4.345029   1.000000
     55         -4.278579   1.000000
     56         -4.230638   1.000000
     57         -4.208295   1.000000
     58         -4.157991   1.000000
     59         -4.136789   1.000000
     60         -4.051527   1.000000
     61         -4.027020   1.000000
     62         -3.988115   1.000000
     63         -3.893463   1.000000
     64         -3.819553   1.000000
     65         -3.744952   1.000000
     66         -3.719536   1.000000
     67         -3.682562   1.000000
     68         -3.629129   1.000000
     69         -3.570430   1.000000
     70         -3.527720   1.000000
     71         -3.388432   1.000000
     72         -3.299429   1.000000
     73         -3.241163   1.000000
     74         -2.899533   1.000000
     75         -2.867205   1.000000
     76         -2.851878   1.000000
     77         -2.761871   1.000000
     78         -2.721444   1.000000
     79         -2.645742   1.000000
     80         -2.624471   1.000000
     81         -2.574488   1.000000
     82         -2.522477   1.000000
     83         -2.471324   1.000000
     84         -2.450466   1.000000
     85         -2.415509   1.000000
     86         -2.345079   1.000000
     87         -2.336017   1.000000
     88         -2.222852   1.000000
     89         -2.175262   1.000000
     90         -1.711532   1.000000
     91         -1.285368   1.000000
     92         -0.624362   0.990538
     93         -0.548556   0.898839
     94         -0.096956   0.000000
     95          0.018928   0.000000
     96          0.162206   0.000000
     97          0.801818   0.000000
     98          1.031914   0.000000
     99          1.606643   0.000000
    100          1.752392   0.000000
    101          2.379748   0.000000
    102          2.823554   0.000000
    103          2.938554   0.000000
    104          3.831765   0.000000
    105          3.992878   0.000000
    106          4.721712   0.000000
    107          4.833868   0.000000
    108          5.254407   0.000000
    109          5.307029   0.000000
    110          5.678102   0.000000
    111          5.809923   0.000000
 
  0.5000000E+00  0.5000000E+00  0.1262379E-14  0.6250000E-01
      1        -24.789790   1.000000
      2        -10.347383   1.000000
      3         -7.706827   1.000000
      4         -7.518628   1.000000
      5         -7.472722   1.000000
      6         -6.663658   1.000000
      7         -6.538411   1.000000
      8         -6.364119   1.000000
      9         -6.300269   1.000000
     10         -6.204093   1.000000
     11         -6.114149   1.000000
     12         -6.098367   1.000000
     13         -6.038674   1.000000
     14         -5.960844   1.000000
     15         -5.942755   1.000000
     16         -5.863951   1.000000
     17         -5.808935   1.000000
     18         -5.782240   1.000000
     19         -5.712924   1.000000
     20         -5.691789   1.000000
     21         -5.618337   1.000000
     22         -5.600904   1.000000
     23         -5.567112   1.000000
     24         -5.528019   1.000000
     25         -5.457633   1.000000
     26         -5.433658   1.000000
     27         -5.388339   1.000000
     28         -5.336393   1.000000
     29         -5.324739   1.000000
     30         -5.211169   1.000000
     31         -5.187755   1.000000
     32         -5.151916   1.000000
     33         -5.125943   1.000000
     34         -5.052600   1.000000
     35         -4.994522   1.000000
     36         -4.959907   1.000000
     37         -4.922648   1.000000
     38         -4.863351   1.000000
     39         -4.806374   1.000000
     40         -4.780376   1.000000
     41         -4.750830   1.000000
     42         -4.724874   1.000000
     43         -4.716336   1.000000
     44         -4.681065   1.000000
     45         -4.601583   1.000000
     46         -4.584745   1.000000
     47         -4.563032   1.000000
     48         -4.533474   1.000000
     49         -4.485233   1.000000
     50         -4.480646   1.000000
     51         -4.372690   1.000000
     52         -4.354591   1.000000
     53         -4.339951   1.000000
     54         -4.276880   1.000000
     55         -4.256011   1.000000
     56         -4.207109   1.000000
     57         -4.189816   1.000000
     58         -4.145951   1.000000
     59         -4.110264   1.000000
     60         -4.050551   1.000000
     61         -3.988222   1.000000
     62         -3.956036   1.000000
     63         -3.904793   1.000000
     64         -3.851422   1.000000
     65         -3.758558   1.000000
     66         -3.639686   1.000000
     67         -3.602049   1.000000
     68         -3.560596   1.000000
     69         -3.499452   1.000000
     70         -3.465508   1.000000
     71         -3.363279   1.000000
     72         -3.339746   1.000000
     73         -3.288708   1.000000
     74         -3.138379   1.000000
     75         -2.932968   1.000000
     76         -2.881507   1.000000
     77         -2.795734   1.000000
     78         -2.701629   1.000000
     79         -2.665664   1.000000
     80         -2.624217   1.000000
     81         -2.550255   1.000000
     82         -2.505193   1.000000
     83         -2.465549   1.000000
     84         -2.427845   1.000000
     85         -2.375379   1.000000
     86         -2.339440   1.000000
     87         -2.261539   1.000000
     88         -2.185836   1.000000
     89         -2.160691   1.000000
     90         -1.813524   1.000000
     91         -1.259172   1.000000
     92         -0.603896   0.980185
     93         -0.582858   0.960801
     94         -0.061973   0.000000
     95          0.021742   0.000000
     96          0.125591   0.000000
     97          0.838803   0.000000
     98          1.034409   0.000000
     99          1.606775   0.000000
    100          1.699490   0.000000
    101          2.386199   0.000000
    102          2.829627   0.000000
    103          2.909581   0.000000
    104          3.837006   0.000000
    105          3.979758   0.000000
    106          4.693843   0.000000
    107          4.882339   0.000000
    108          5.256397   0.000000
    109          5.308633   0.000000
    110          5.700238   0.000000
    111          5.812896   0.000000
 
  0.1262379E-14  0.5000000E+00  0.1262379E-14  0.6250000E-01
      1        -24.789797   1.000000
      2        -10.351189   1.000000
      3         -7.723775   1.000000
      4         -7.500532   1.000000
      5         -7.482425   1.000000
      6         -6.648505   1.000000
      7         -6.533742   1.000000
      8         -6.417452   1.000000
      9         -6.238341   1.000000
     10         -6.221584   1.000000
     11         -6.197678   1.000000
     12         -6.107169   1.000000
     13         -6.040712   1.000000
     14         -5.955946   1.000000
     15         -5.940053   1.000000
     16         -5.863974   1.000000
     17         -5.845331   1.000000
     18         -5.803314   1.000000
     19         -5.740366   1.000000
     20         -5.691404   1.000000
     21         -5.624395   1.000000
     22         -5.584416   1.000000
     23         -5.525799   1.000000
     24         -5.486661   1.000000
     25         -5.416570   1.000000
     26         -5.397783   1.000000
     27         -5.333004   1.000000
     28         -5.301684   1.000000
     29         -5.268778   1.000000
     30         -5.178640   1.000000
     31         -5.157776   1.000000
     32         -5.131479   1.000000
     33         -5.094603   1.000000
     34         -5.029244   1.000000
     35         -5.012222   1.000000
     36         -4.963539   1.000000
     37         -4.954198   1.000000
     38         -4.920268   1.000000
     39         -4.840843   1.000000
     40         -4.811275   1.000000
     41         -4.736725   1.000000
     42         -4.726378   1.000000
     43         -4.722113   1.000000
     44         -4.682245   1.000000
     45         -4.649887   1.000000
     46         -4.583775   1.000000
     47         -4.553529   1.000000
     48         -4.515987   1.000000
     49         -4.484738   1.000000
     50         -4.439540   1.000000
     51         -4.399769   1.000000
     52         -4.381295   1.000000
     53         -4.348493   1.000000
     54         -4.294260   1.000000
     55         -4.281614   1.000000
     56         -4.241451   1.000000
     57         -4.161880   1.000000
     58         -4.147254   1.000000
     59         -4.098430   1.000000
     60         -4.060549   1.000000
     61         -4.022311   1.000000
     62         -3.989325   1.000000
     63         -3.865273   1.000000
     64         -3.840644   1.000000
     65         -3.720525   1.000000
     66         -3.674883   1.000000
     67         -3.639472   1.000000
     68         -3.619772   1.000000
     69         -3.552060   1.000000
     70         -3.468861   1.000000
     71         -3.382192   1.000000
     72         -3.334061   1.000000
     73         -3.239842   1.000000
     74         -2.967168   1.000000
     75         -2.873105   1.000000
     76         -2.838332   1.000000
     77         -2.781134   1.000000
     78         -2.686118   1.000000
     79         -2.659244   1.000000
     80         -2.624319   1.000000
     81         -2.585012   1.000000
     82         -2.552320   1.000000
     83         -2.480602   1.000000
     84         -2.456396   1.000000
     85         -2.428572   1.000000
     86         -2.357664   1.000000
     87         -2.277909   1.000000
     88         -2.213613   1.000000
     89         -2.118985   1.000000
     90         -1.748421   1.000000
     91         -1.290070   1.000000
     92         -0.622885   0.989994
     93         -0.567111   0.937898
     94         -0.095911   0.000000
     95         -0.030262   0.000000
     96          0.086967   0.000000
     97          0.842452   0.000000
     98          1.025174   0.000000
     99          1.591083   0.000000
    100          1.774496   0.000000
    101          2.412675   0.000000
    102          2.778922   0.000000
    103          2.944906   0.000000
    104          3.893644   0.000000
    105          3.935702   0.000000
    106          4.748815   0.000000
    107          4.762285   0.000000
    108          5.264519   0.000000
    109          5.295191   0.000000
    110          5.615450   0.000000
    111          5.799641   0.000000
 
  0.5000000E+00  0.2500000E+00  0.1262379E-14  0.1250000E+00
      1        -24.789779   1.000000
      2        -10.348224   1.000000
      3         -7.714799   1.000000
      4         -7.508875   1.000000
      5         -7.477830   1.000000
      6         -6.755187   1.000000
      7         -6.308117   1.000000
      8         -6.246394   1.000000
      9         -6.226970   1.000000
     10         -6.172918   1.000000
     11         -6.154040   1.000000
     12         -6.089299   1.000000
     13         -6.067393   1.000000
     14         -6.004051   1.000000