       N       E                     dE             d eps       ncg     rms          rms(c)
DAV:   1     0.143219702716E+04    0.14322E+04   -0.74362E+04  2220   0.136E+03
DAV:   2     0.108615915812E+03   -0.13236E+04   -0.12247E+04  2346   0.333E+02
DAV:   3    -0.451278868025E+02   -0.15374E+03   -0.14436E+03  2928   0.131E+02
DAV:   4    -0.551881234770E+02   -0.10060E+02   -0.96313E+01  3360   0.376E+01
DAV:   5    -0.554309894003E+02   -0.24287E+00   -0.24066E+00  2944   0.512E+00    0.254E+01
DAV:   6    -0.547286250037E+02    0.70236E+00   -0.76960E+01  3224   0.849E+01    0.169E+01
DAV:   7    -0.502464036873E+02    0.44822E+01   -0.39175E+01  2880   0.133E+02    0.116E+01
DAV:   8    -0.519341970691E+02   -0.16878E+01   -0.29158E+01  3480   0.684E+01    0.154E+01
DAV:   9    -0.498440749825E+02    0.20901E+01   -0.28068E+01  3544   0.494E+01    0.543E+00
DAV:  10    -0.496619405094E+02    0.18213E+00   -0.31651E+00  3160   0.341E+01    0.309E+00
DAV:  11    -0.494993271540E+02    0.16261E+00   -0.10338E+00  3081   0.206E+01    0.141E+00
DAV:  12    -0.494694494253E+02    0.29878E-01   -0.26333E-01  3400   0.740E+00    0.521E-01
DAV:  13    -0.494682352677E+02    0.12142E-02   -0.86088E-02  3480   0.367E+00    0.400E-01
DAV:  14    -0.494656916884E+02    0.25436E-02   -0.17345E-02  3290   0.191E+00    0.124E-01
DAV:  15    -0.494652707221E+02    0.42097E-03   -0.72372E-03  3252   0.813E-01    0.154E-01
DAV:  16    -0.494648671206E+02    0.40360E-03   -0.15162E-03  3521   0.482E-01    0.618E-02
DAV:  17    -0.494648318104E+02    0.35310E-04   -0.58214E-04  3336   0.348E-01    0.321E-02
DAV:  18    -0.494649576567E+02   -0.12585E-03   -0.15814E-04  3176   0.137E-01    0.200E-02
DAV:  19    -0.494650590257E+02   -0.10137E-03   -0.32627E-05  3144   0.814E-02    0.731E-03
DAV:  20    -0.494651739176E+02   -0.11489E-03   -0.20075E-05  2812   0.398E-02    0.575E-03
DAV:  21    -0.494652844027E+02   -0.11049E-03   -0.15104E-05  2393   0.188E-02    0.308E-03
DAV:  22    -0.494653289242E+02   -0.44521E-04   -0.34908E-06  1772   0.191E-02    0.271E-03
DAV:  23    -0.494653663456E+02   -0.37421E-04   -0.36363E-06  1763   0.124E-02    0.138E-03
DAV:  24    -0.494653827457E+02   -0.16400E-04   -0.13704E-06  1638   0.760E-03    0.861E-04
DAV:  25    -0.494653960078E+02   -0.13262E-04   -0.70290E-07  1536   0.592E-03    0.596E-04
DAV:  26    -0.494654034110E+02   -0.74031E-05   -0.35779E-07  1532   0.484E-03    0.758E-04
DAV:  27    -0.494654081136E+02   -0.47027E-05   -0.19610E-07  1477   0.484E-03    0.300E-04
DAV:  28    -0.494654107433E+02   -0.26297E-05   -0.11644E-07  1470   0.284E-03    0.327E-04
DAV:  29    -0.494654117615E+02   -0.10183E-05   -0.62329E-08  1424   0.252E-03    0.172E-04
DAV:  30    -0.494654120860E+02   -0.32445E-06   -0.30519E-08  1419   0.996E-04
   1 F= -.49465412E+02 E0= -.49443716E+02  d E =-.494654E+02
       N       E                     dE             d eps       ncg     rms          rms(c)
DAV:   1    -0.468237069195E+02    0.26417E+01   -0.44448E+02  2220   0.448E+01    0.604E+00
DAV:   2    -0.502788405347E+02   -0.34551E+01   -0.47570E+01  3069   0.427E+01    0.105E+01
DAV:   3    -0.469656259313E+02    0.33132E+01   -0.15581E+01  3417   0.361E+01    0.345E+00
DAV:   4    -0.468384760013E+02    0.12715E+00   -0.18308E+00  3616   0.165E+01    0.271E+00
DAV:   5    -0.467959229973E+02    0.42553E-01   -0.57697E-01  3277   0.983E+00    0.140E+00
DAV:   6    -0.467874689787E+02    0.84540E-02   -0.22954E-01  3640   0.734E+00    0.845E-01
DAV:   7    -0.467863915762E+02    0.10774E-02   -0.10332E-01  3186   0.512E+00    0.475E-01
DAV:   8    -0.467877875204E+02   -0.13959E-02   -0.81888E-02  3138   0.384E+00    0.373E-01
DAV:   9    -0.467864183817E+02    0.13691E-02   -0.15607E-02  3344   0.181E+00    0.129E-01
DAV:  10    -0.467875348745E+02   -0.11165E-02   -0.31689E-03  3344   0.651E-01    0.927E-02
DAV:  11    -0.467891127440E+02   -0.15779E-02   -0.16053E-03  3176   0.506E-01    0.610E-02
DAV:  12    -0.467898088365E+02   -0.69609E-03   -0.48715E-04  3264   0.303E-01    0.322E-02
DAV:  13    -0.467905484713E+02   -0.73963E-03   -0.30544E-04  3056   0.194E-01    0.354E-02
DAV:  14    -0.467912793580E+02   -0.73089E-03   -0.25883E-04  2544   0.117E-01    0.196E-02
DAV:  15    -0.467918340525E+02   -0.55469E-03   -0.24951E-04  2880   0.110E-01    0.132E-02
DAV:  16    -0.467919982018E+02   -0.16415E-03   -0.39549E-05  3064   0.454E-02    0.692E-03
DAV:  17    -0.467921571708E+02   -0.15897E-03   -0.30267E-05  2450   0.240E-02    0.464E-03
DAV:  18    -0.467922229438E+02   -0.65773E-04   -0.93495E-06  2120   0.237E-02    0.440E-03
DAV:  19    -0.467922895218E+02   -0.66578E-04   -0.10217E-05  2522   0.254E-02    0.299E-03
DAV:  20    -0.467923215380E+02   -0.32016E-04   -0.28583E-06  1728   0.143E-02    0.130E-03
DAV:  21    -0.467923429898E+02   -0.21452E-04   -0.18478E-06  1748   0.804E-03    0.581E-04
DAV:  22    -0.467923480429E+02   -0.50531E-05   -0.36225E-07  1504   0.431E-03    0.463E-04
DAV:  23    -0.467923527253E+02   -0.46824E-05   -0.26509E-07  1386   0.382E-03    0.455E-04
DAV:  24    -0.467923552592E+02   -0.25339E-05   -0.15802E-07  1433   0.310E-03    0.278E-04
DAV:  25    -0.467923566059E+02   -0.13467E-05   -0.76220E-08  1449   0.241E-03    0.181E-04
DAV:  26    -0.467923571730E+02   -0.56715E-06   -0.39258E-08  1369   0.180E-03
   2 F= -.46792357E+02 E0= -.46768991E+02  d E =0.267305E+01
       N       E                     dE             d eps       ncg     rms          rms(c)
DAV:   1    -0.484767527160E+02   -0.16844E+01   -0.17466E+02  2227   0.415E+01    0.443E+00
DAV:   2    -0.497669494070E+02   -0.12902E+01   -0.14377E+01  3272   0.173E+01    0.492E+00
DAV:   3    -0.495200295623E+02    0.24692E+00   -0.10815E+01  3432   0.230E+01    0.299E+00
DAV:   4    -0.492673250908E+02    0.25270E+00   -0.26786E+00  3298   0.162E+01    0.156E+00
DAV:   5    -0.492222393328E+02    0.45086E-01   -0.24120E-01  3376   0.762E+00    0.115E+00
DAV:   6    -0.492000158345E+02    0.22223E-01   -0.80250E-02  3232   0.445E+00    0.711E-01
DAV:   7    -0.491916737826E+02    0.83421E-02   -0.33549E-02  3107   0.338E+00    0.321E-01
DAV:   8    -0.491886037828E+02    0.30700E-02   -0.14226E-02  3401   0.172E+00    0.161E-01
DAV:   9    -0.491881429306E+02    0.46085E-03   -0.30661E-03  3353   0.684E-01    0.101E-01
DAV:  10    -0.491876604564E+02    0.48247E-03   -0.12457E-03  3214   0.455E-01    0.499E-02
DAV:  11    -0.491875172398E+02    0.14322E-03   -0.45497E-04  3116   0.314E-01    0.372E-02
DAV:  12    -0.491875152510E+02    0.19888E-05   -0.19164E-04  3037   0.230E-01    0.208E-02
DAV:  13    -0.491877018157E+02   -0.18656E-03   -0.79119E-05  2796   0.732E-02    0.177E-02
DAV:  14    -0.491881081575E+02   -0.40634E-03   -0.11062E-04  2798   0.725E-02    0.929E-03
DAV:  15    -0.491883616002E+02   -0.25344E-03   -0.26716E-05  2939   0.331E-02    0.659E-03
DAV:  16    -0.491886071540E+02   -0.24555E-03   -0.18680E-05  2746   0.358E-02    0.446E-03
DAV:  17    -0.491887539459E+02   -0.14679E-03   -0.70971E-06  2256   0.230E-02    0.256E-03
DAV:  18    -0.491888542432E+02   -0.10030E-03   -0.43277E-06  2030   0.123E-02    0.167E-03
DAV:  19    -0.491888887773E+02   -0.34534E-04   -0.10292E-06  1704   0.771E-03    0.972E-04
DAV:  20    -0.491889239859E+02   -0.35209E-04   -0.15981E-06  1630   0.529E-03    0.736E-04
DAV:  21    -0.491889319589E+02   -0.79730E-05   -0.39118E-07  1554   0.492E-03    0.452E-04
DAV:  22    -0.491889358216E+02   -0.38627E-05   -0.15549E-07  1414   0.287E-03    0.268E-04
DAV:  23    -0.491889390023E+02   -0.31808E-05   -0.10397E-07  1367   0.214E-03    0.210E-04
DAV:  24    -0.491889400763E+02   -0.10740E-05   -0.47616E-08  1402   0.178E-03    0.134E-04
DAV:  25    -0.491889406045E+02   -0.52818E-06   -0.21209E-08  1288   0.108E-03
   3 F= -.49188941E+02 E0= -.49166697E+02  d E =0.276471E+00
       N       E                     dE             d eps       ncg     rms          rms(c)
DAV:   1    -0.495045881492E+02   -0.31565E+00   -0.18389E+01  2220   0.120E+01    0.163E+00
DAV:   2    -0.496079632195E+02   -0.10338E+00   -0.13119E+00  3181   0.515E+00    0.145E+00
DAV:   3    -0.495998890159E+02    0.80742E-02   -0.10418E+00  3383   0.872E+00    0.114E+00
DAV:   4    -0.495617591996E+02    0.38130E-01   -0.45462E-01  3284   0.751E+00    0.558E-01
DAV:   5    -0.495525635377E+02    0.91957E-02   -0.42277E-02  3157   0.331E+00    0.271E-01
DAV:   6    -0.495510356410E+02    0.15279E-02   -0.95159E-03  3312   0.159E+00    0.146E-01
DAV:   7    -0.495507654997E+02    0.27014E-03   -0.22138E-03  3240   0.706E-01    0.718E-02
DAV:   8    -0.495506604501E+02    0.10505E-03   -0.10199E-03  3316   0.418E-01    0.463E-02
DAV:   9    -0.495506733417E+02   -0.12892E-04   -0.22447E-04  3177   0.257E-01    0.271E-02
DAV:  10    -0.495507559831E+02   -0.82641E-04   -0.10755E-04  3156   0.980E-02    0.135E-02
DAV:  11    -0.495508921003E+02   -0.13612E-03   -0.48477E-05  3188   0.805E-02    0.108E-02
DAV:  12    -0.495510131834E+02   -0.12108E-03   -0.15329E-05  2275   0.632E-02    0.650E-03
DAV:  13    -0.495511441929E+02   -0.13101E-03   -0.14397E-05  2842   0.319E-02    0.521E-03
DAV:  14    -0.495512688902E+02   -0.12470E-03   -0.93114E-06  2014   0.133E-02    0.245E-03
DAV:  15    -0.495513653945E+02   -0.96504E-04   -0.59225E-06  1931   0.103E-02    0.158E-03
DAV:  16    -0.495513982311E+02   -0.32837E-04   -0.12019E-06  1728   0.934E-03    0.124E-03
DAV:  17    -0.495514235459E+02   -0.25315E-04   -0.86996E-07  1588   0.578E-03    0.767E-04
DAV:  18    -0.495514402541E+02   -0.16708E-04   -0.58099E-07  1561   0.416E-03    0.499E-04
DAV:  19    -0.495514476696E+02   -0.74155E-05   -0.24075E-07  1524   0.357E-03    0.348E-04
DAV:  20    -0.495514505671E+02   -0.28975E-05   -0.12152E-07  1450   0.217E-03    0.194E-04
DAV:  21    -0.495514521371E+02   -0.15700E-05   -0.62146E-08  1412   0.170E-03    0.203E-04
DAV:  22    -0.495514528182E+02   -0.68103E-06   -0.27684E-08  1396   0.148E-03
   4 F= -.49551453E+02 E0= -.49529552E+02  d E =-.860407E-01
       N       E                     dE             d eps       ncg     rms          rms(c)
DAV:   1    -0.495663223914E+02   -0.14870E-01   -0.70194E-01  2227   0.198E+00    0.343E-01
DAV:   2    -0.495687039408E+02   -0.23815E-02   -0.36991E-02  2941   0.900E-01    0.243E-01
DAV:   3    -0.495698179600E+02   -0.11140E-02   -0.46927E-02  3422   0.198E+00    0.264E-01
DAV:   4    -0.495672753318E+02    0.25426E-02   -0.23972E-02  3379   0.173E+00    0.936E-02
DAV:   5    -0.495670279589E+02    0.24737E-03   -0.12257E-03  3241   0.640E-01    0.473E-02
DAV:   6    -0.495669898620E+02    0.38097E-04   -0.26860E-04  3400   0.225E-01    0.260E-02
DAV:   7    -0.495669878265E+02    0.20355E-05   -0.57139E-05  3282   0.898E-02    0.121E-02
DAV:   8    -0.495669978295E+02   -0.10003E-04   -0.40356E-05  2132   0.738E-02    0.727E-03
DAV:   9    -0.495670070951E+02   -0.92656E-05   -0.61903E-06  2121   0.456E-02    0.427E-03
DAV:  10    -0.495670238515E+02   -0.16756E-04   -0.52143E-06  1949   0.197E-02    0.220E-03
DAV:  11    -0.495670378165E+02   -0.13965E-04   -0.17459E-06  1695   0.155E-02    0.211E-03
DAV:  12    -0.495670525245E+02   -0.14708E-04   -0.14420E-06  1605   0.140E-02    0.105E-03
DAV:  13    -0.495670619002E+02   -0.93756E-05   -0.90685E-07  1571   0.576E-03    0.849E-04
DAV:  14    -0.495670717660E+02   -0.98659E-05   -0.74989E-07  1615   0.535E-03    0.647E-04
DAV:  15    -0.495670766729E+02   -0.49068E-05   -0.40558E-07  1500   0.413E-03    0.341E-04
DAV:  16    -0.495670783668E+02   -0.16940E-05   -0.16974E-07  1451   0.300E-03    0.332E-04
DAV:  17    -0.495670804673E+02   -0.21005E-05   -0.12287E-07  1466   0.188E-03    0.172E-04
DAV:  18    -0.495670814796E+02   -0.10123E-05   -0.57772E-08  1466   0.143E-03    0.153E-04
DAV:  19    -0.495670819780E+02   -0.49837E-06   -0.29328E-08  1419   0.110E-03
   5 F= -.49567082E+02 E0= -.49545238E+02  d E =-.101670E+00
       N       E                     dE             d eps       ncg     rms          rms(c)
DAV:   1    -0.495674966009E+02   -0.41512E-03   -0.26799E-02  2283   0.375E-01    0.675E-02
DAV:   2    -0.495675784952E+02   -0.81894E-04   -0.13260E-03  2931   0.171E-01    0.461E-02
DAV:   3    -0.495676325707E+02   -0.54075E-04   -0.18524E-03  3454   0.398E-01    0.534E-02
DAV:   4    -0.495675252273E+02    0.10734E-03   -0.95150E-04  3300   0.342E-01    0.174E-02
DAV:   5    -0.495675163010E+02    0.89263E-05   -0.40856E-05  2831   0.121E-01    0.907E-03
DAV:   6    -0.495675145481E+02    0.17529E-05   -0.92050E-06  2489   0.428E-02    0.462E-03
DAV:   7    -0.495675145161E+02    0.32014E-07   -0.19016E-06  1427   0.165E-02
   6 F= -.49567515E+02 E0= -.49545681E+02  d E =-.102102E+00
       N       E                     dE             d eps       ncg     rms          rms(c)
DAV:   1    -0.496260274507E+02   -0.58513E-01   -0.26991E+01  2220   0.143E+01    0.434E-01
DAV:   2    -0.496556481777E+02   -0.29621E-01   -0.31662E-01  3393   0.424E+00    0.499E-01
DAV:   3    -0.496527498680E+02    0.28983E-02   -0.14481E-02  3118   0.175E+00    0.222E-01
DAV:   4    -0.496529319344E+02   -0.18207E-03   -0.78253E-03  3453   0.822E-01    0.187E-01
DAV:   5    -0.496529239076E+02    0.80267E-05   -0.16762E-02  3631   0.134E+00    0.140E-01
DAV:   6    -0.496524072581E+02    0.51665E-03   -0.65368E-03  3318   0.971E-01    0.576E-02
DAV:   7    -0.496523689926E+02    0.38266E-04   -0.49436E-04  3243   0.379E-01    0.257E-02
DAV:   8    -0.496523558940E+02    0.13099E-04   -0.71408E-05  3306   0.101E-01    0.168E-02
DAV:   9    -0.496523511513E+02    0.47427E-05   -0.41084E-05  3185   0.701E-02    0.967E-03
DAV:  10    -0.496523501051E+02    0.10463E-05   -0.81293E-06  2057   0.487E-02    0.356E-03
DAV:  11    -0.496523506813E+02   -0.57628E-06   -0.32878E-06  1761   0.240E-02
   7 F= -.49652351E+02 E0= -.49630855E+02  d E =-.848362E-01
       N       E                     dE             d eps       ncg     rms          rms(c)
DAV:   1    -0.494970070432E+02    0.15534E+00   -0.19985E+02  2220   0.394E+01    0.118E+00
DAV:   2    -0.497888667308E+02   -0.29186E+00   -0.31037E+00  3409   0.133E+01    0.143E+00
DAV:   3    -0.497629435981E+02    0.25923E-01   -0.10212E-01  3149   0.523E+00    0.634E-01
DAV:   4    -0.497608456871E+02    0.20979E-02   -0.18545E-02  3330   0.109E+00    0.440E-01
DAV:   5    -0.497604387675E+02    0.40692E-03   -0.13329E-02  3235   0.150E+00    0.260E-01
DAV:   6    -0.497608096424E+02   -0.37087E-03   -0.22552E-02  3143   0.164E+00    0.201E-01
DAV:   7    -0.497598087332E+02    0.10009E-02   -0.17314E-02  3155   0.145E+00    0.885E-02
DAV:   8    -0.497596589833E+02    0.14975E-03   -0.25533E-03  3293   0.629E-01    0.501E-02
DAV:   9    -0.497596309596E+02    0.28024E-04   -0.26954E-04  3472   0.232E-01    0.296E-02
DAV:  10    -0.497596246711E+02    0.62884E-05   -0.72018E-05  3251   0.864E-02    0.107E-02
DAV:  11    -0.497596304903E+02   -0.58192E-05   -0.22051E-05  2130   0.590E-02    0.755E-03
DAV:  12    -0.497596317300E+02   -0.12397E-05   -0.56098E-06  1832   0.456E-02    0.378E-03
DAV:  13    -0.497596331673E+02   -0.14372E-05   -0.16751E-06  1541   0.197E-02    0.113E-03
DAV:  14    -0.497596344706E+02   -0.13034E-05   -0.70598E-07  1433   0.569E-03    0.713E-04
DAV:  15    -0.497596360266E+02   -0.15559E-05   -0.30256E-07  1469   0.512E-03    0.505E-04
DAV:  16    -0.497596370978E+02   -0.10712E-05   -0.12599E-07  1436   0.392E-03    0.306E-04
DAV:  17    -0.497596381391E+02   -0.10413E-05   -0.99934E-08  1485   0.224E-03    0.169E-04
DAV:  18    -0.497596387375E+02   -0.59835E-06   -0.59837E-08  1420   0.133E-03
   8 F= -.49759639E+02 E0= -.49739143E+02  d E =-.192124E+00
       N       E                     dE             d eps       ncg     rms          rms(c)
DAV:   1    -0.497568046122E+02    0.28335E-02   -0.64306E+00  2220   0.693E+00    0.180E-01
DAV:   2    -0.497631472305E+02   -0.63426E-02   -0.67071E-02  3380   0.187E+00    0.200E-01
DAV:   3    -0.497626681626E+02    0.47907E-03   -0.26342E-03  3032   0.791E-01    0.947E-02
DAV:   4    -0.497626435471E+02    0.24615E-04   -0.91818E-04  3396   0.279E-01    0.686E-02
DAV:   5    -0.497627687927E+02   -0.12525E-03   -0.30422E-03  3666   0.587E-01    0.737E-02
DAV:   6    -0.497626031813E+02    0.16561E-03   -0.20815E-03  3593   0.475E-01    0.257E-02
DAV:   7    -0.497625908856E+02    0.12296E-04   -0.13165E-04  3398   0.165E-01    0.103E-02
DAV:   8    -0.497625893638E+02    0.15218E-05   -0.14005E-05  2553   0.429E-02    0.701E-03
DAV:   9    -0.497625886466E+02    0.71726E-06   -0.97314E-06  2803   0.222E-02
   9 F= -.49762589E+02 E0= -.49742276E+02  d E =-.195074E+00
       N       E                     dE             d eps       ncg     rms          rms(c)
DAV:   1    -0.497770967655E+02   -0.14507E-01   -0.51521E+01  2220   0.204E+01    0.727E-01
DAV:   2    -0.498525958289E+02   -0.75499E-01   -0.82895E-01  3395   0.708E+00    0.809E-01
DAV:   3    -0.498434462681E+02    0.91496E-02   -0.56483E-02  3204   0.321E+00    0.365E-01
DAV:   4    -0.498451553174E+02   -0.17090E-02   -0.45209E-02  3470   0.223E+00    0.352E-01
DAV:   5    -0.498427446111E+02    0.24107E-02   -0.42941E-02  3776   0.210E+00    0.191E-01
DAV:   6    -0.498424662603E+02    0.27835E-03   -0.76575E-03  3380   0.996E-01    0.106E-01
DAV:   7    -0.498423548271E+02    0.11143E-03   -0.12215E-03  3202   0.701E-01    0.389E-02
DAV:   8    -0.498423394109E+02    0.15416E-04   -0.18888E-04  3402   0.140E-01    0.223E-02
DAV:   9    -0.498423321247E+02    0.72863E-05   -0.68823E-05  3197   0.105E-01    0.148E-02
DAV:  10    -0.498423309751E+02    0.11495E-05   -0.14409E-05  2385   0.761E-02    0.710E-03
DAV:  11    -0.498423317961E+02   -0.82102E-06   -0.80739E-06  2171   0.336E-02
  10 F= -.49842332E+02 E0= -.49822441E+02  d E =-.797431E-01
       N       E                     dE             d eps       ncg     rms          rms(c)
DAV:   1    -0.491308462113E+02    0.71148E+00   -0.48202E+02  2300   0.650E+01    0.244E+00
DAV:   2    -0.500457896470E+02   -0.91494E+00   -0.97636E+00  3417   0.228E+01    0.242E+00
DAV:   3    -0.499736219989E+02    0.72168E-01   -0.52955E-01  3345   0.107E+01    0.117E+00
DAV:   4    -0.499800909656E+02   -0.64690E-02   -0.35488E-01  3360   0.527E+00    0.108E+00
DAV:   5    -0.499650414230E+02    0.15050E-01   -0.27302E-01  3545   0.538E+00    0.764E-01
DAV:   6    -0.499610521832E+02    0.39892E-02   -0.52573E-02  3472   0.233E+00    0.342E-01
DAV:   7    -0.499602052250E+02    0.84696E-03   -0.99655E-03  3115   0.207E+00    0.135E-01
DAV:   8    -0.499601314584E+02    0.73767E-04   -0.22985E-03  3416   0.638E-01    0.579E-02
DAV:   9    -0.499601211615E+02    0.10297E-04   -0.77981E-04  3372   0.259E-01    0.376E-02
DAV:  10    -0.499601278845E+02   -0.67230E-05   -0.13855E-04  3168   0.216E-01    0.232E-02
DAV:  11    -0.499601238073E+02    0.40771E-05   -0.55945E-05  3035   0.120E-01    0.709E-03
DAV:  12    -0.499601272780E+02   -0.34706E-05   -0.12723E-05  2248   0.329E-02    0.321E-03
DAV:  13    -0.499601305519E+02   -0.32739E-05   -0.26322E-06  1690   0.169E-02    0.159E-03
DAV:  14    -0.499601318954E+02   -0.13434E-05   -0.86367E-07  1488   0.985E-03    0.969E-04
DAV:  15    -0.499601335752E+02   -0.16798E-05   -0.37501E-07  1460   0.416E-03    0.572E-04
DAV:  16    -0.499601349359E+02   -0.13607E-05   -0.18545E-07  1489   0.331E-03    0.340E-04
DAV:  17    -0.499601356732E+02   -0.73732E-06   -0.94626E-08  1467   0.262E-03
  11 F= -.49960136E+02 E0= -.49941026E+02  d E =-.197547E+00
       N       E                     dE             d eps       ncg     rms          rms(c)
DAV:   1    -0.498636313490E+02    0.96504E-01   -0.87304E+01  2220   0.268E+01    0.119E+00
DAV:   2    -0.500350307091E+02   -0.17140E+00   -0.18823E+00  3416   0.117E+01    0.132E+00
DAV:   3    -0.500163849457E+02    0.18646E-01   -0.18374E-01  3340   0.747E+00    0.673E-01
DAV:   4    -0.500162302851E+02    0.15466E-03   -0.14171E-01  3514   0.324E+00    0.540E-01
DAV:   5    -0.500114019501E+02    0.48283E-02   -0.80243E-02  3629   0.234E+00    0.304E-01
DAV:   6    -0.500103733186E+02    0.10286E-02   -0.15101E-02  3370   0.938E-01    0.104E-01
DAV:   7    -0.500103079786E+02    0.65340E-04   -0.13261E-03  3312   0.500E-01    0.510E-02
DAV:   8    -0.500102943199E+02    0.13659E-04   -0.30530E-04  3155   0.213E-01    0.292E-02
DAV:   9    -0.500102975212E+02   -0.32012E-05   -0.11798E-04  3208   0.164E-01    0.185E-02
DAV:  10    -0.500103068631E+02   -0.93419E-05   -0.32384E-05  3203   0.103E-01    0.680E-03
DAV:  11    -0.500103260686E+02   -0.19206E-04   -0.63935E-06  2076   0.232E-02    0.373E-03
DAV:  12    -0.500103454653E+02   -0.19397E-04   -0.39189E-06  1699   0.171E-02    0.221E-03
DAV:  13    -0.500103594361E+02   -0.13971E-04   -0.15703E-06  1657   0.167E-02    0.181E-03
DAV:  14    -0.500103765619E+02   -0.17126E-04   -0.16617E-06  1683   0.125E-02    0.131E-03
DAV:  15    -0.500103903952E+02   -0.13833E-04   -0.10073E-06  1658   0.680E-03    0.930E-04
DAV:  16    -0.500104030093E+02   -0.12614E-04   -0.12226E-06  1603   0.585E-03    0.571E-04
DAV:  17    -0.500104063961E+02   -0.33868E-05   -0.38104E-07  1544   0.432E-03    0.388E-04
DAV:  18    -0.500104087893E+02   -0.23932E-05   -0.18883E-07  1452   0.288E-03    0.269E-04
DAV:  19    -0.500104105445E+02   -0.17553E-05   -0.10495E-07  1496   0.250E-03    0.247E-04
DAV:  20    -0.500104112284E+02   -0.68385E-06   -0.55680E-08  1430   0.167E-03
  12 F= -.50010411E+02 E0= -.49991504E+02  d E =-.502756E-01
       N       E                     dE             d eps       ncg     rms          rms(c)
DAV:   1    -0.500101383632E+02    0.27218E-03   -0.30885E-01  2227   0.156E+00    0.676E-02
DAV:   2    -0.500105585513E+02   -0.42019E-03   -0.46979E-03  3361   0.615E-01    0.717E-02
DAV:   3    -0.500105089794E+02    0.49572E-04   -0.63560E-04  3135   0.419E-01    0.386E-02
DAV:   4    -0.500105136854E+02   -0.47060E-05   -0.59040E-04  3487   0.204E-01    0.313E-02
DAV:   5    -0.500104936991E+02    0.19986E-04   -0.32729E-04  3288   0.153E-01    0.146E-02
DAV:   6    -0.500104917056E+02    0.19934E-05   -0.45897E-05  3305   0.692E-02    0.441E-03
DAV:   7    -0.500104915379E+02    0.16773E-06   -0.32279E-06  1920   0.293E-02
  13 F= -.50010492E+02 E0= -.49991588E+02  d E =-.503559E-01
       N       E                     dE             d eps       ncg     rms          rms(c)
DAV:   1    -0.500165851761E+02   -0.60935E-02   -0.66634E+00  2220   0.725E+00    0.406E-01
DAV:   2    -0.500284663965E+02   -0.11881E-01   -0.14521E-01  3287   0.333E+00    0.473E-01
DAV:   3    -0.500257166008E+02    0.27498E-02   -0.32717E-02  3229   0.197E+00    0.226E-01
DAV:   4    -0.500259163604E+02   -0.19976E-03   -0.23597E-02  3414   0.156E+00    0.224E-01
DAV:   5    -0.500248356974E+02    0.10807E-02   -0.10611E-02  3725   0.909E-01    0.765E-02
DAV:   6    -0.500248242324E+02    0.11465E-04   -0.11475E-03  3320   0.462E-01    0.544E-02
DAV:   7    -0.500247902859E+02    0.33947E-04   -0.28398E-04  3185   0.358E-01    0.167E-02
DAV:   8    -0.500248038178E+02   -0.13532E-04   -0.36267E-05  3346   0.587E-02    0.961E-03
DAV:   9    -0.500248188621E+02   -0.15044E-04   -0.10418E-05  2250   0.468E-02    0.627E-03
DAV:  10    -0.500248246870E+02   -0.58249E-05   -0.36337E-06  1904   0.347E-02    0.305E-03
DAV:  11    -0.500248321355E+02   -0.74485E-05   -0.92281E-07  1500   0.150E-02    0.140E-03
DAV:  12    -0.500248400753E+02   -0.79398E-05   -0.12910E-06  1666   0.886E-03    0.125E-03
DAV:  13    -0.500248447362E+02   -0.46609E-05   -0.45728E-07  1506   0.610E-03    0.857E-04
DAV:  14    -0.500248529828E+02   -0.82466E-05   -0.79708E-07  1590   0.458E-03    0.623E-04
DAV:  15    -0.500248562943E+02   -0.33115E-05   -0.33432E-07  1545   0.371E-03    0.330E-04
DAV:  16    -0.500248590531E+02   -0.27589E-05   -0.26522E-07  1478   0.271E-03    0.413E-04
DAV:  17    -0.500248600996E+02   -0.10465E-05   -0.13585E-07  1497   0.271E-03    0.215E-04
DAV:  18    -0.500248604693E+02   -0.36974E-06   -0.68098E-08  1412   0.134E-03
  14 F= -.50024860E+02 E0= -.50005805E+02  d E =-.143689E-01
       N       E                     dE             d eps       ncg     rms          rms(c)
DAV:   1    -0.500248452592E+02    0.14840E-04   -0.34210E-01  2234   0.164E+00    0.870E-02
DAV:   2    -0.500254106691E+02   -0.56541E-03   -0.68381E-03  3279   0.683E-01    0.993E-02
DAV:   3    -0.500253014005E+02    0.10927E-03   -0.17885E-03  3185   0.413E-01    0.527E-02
DAV:   4    -0.500252930943E+02    0.83061E-05   -0.11516E-03  3391   0.346E-01    0.484E-02
DAV:   5    -0.500252479330E+02    0.45161E-04   -0.40720E-04  3537   0.190E-01    0.166E-02
DAV:   6    -0.500252469349E+02    0.99806E-06   -0.42039E-05  3321   0.852E-02    0.102E-02
DAV:   7    -0.500252458374E+02    0.10975E-05   -0.10770E-05  1948   0.727E-02    0.379E-03
DAV:   8    -0.500252464175E+02   -0.58010E-06   -0.19969E-06  1481   0.164E-02
  15 F= -.50025246E+02 E0= -.50006153E+02  d E =-.147549E-01
       N       E                     dE             d eps       ncg     rms          rms(c)
DAV:   1    -0.500281393893E+02   -0.28936E-02   -0.11487E-01  2220   0.950E-01    0.478E-02
DAV:   2    -0.500283268332E+02   -0.18744E-03   -0.20507E-03  3218   0.228E-01    0.345E-02
DAV:   3    -0.500283378922E+02   -0.11059E-04   -0.41017E-04  2999   0.155E-01    0.334E-02
DAV:   4    -0.500283207420E+02    0.17150E-04   -0.32816E-04  2688   0.164E-01    0.212E-02
DAV:   5    -0.500283194509E+02    0.12910E-05   -0.97260E-05  2575   0.137E-01    0.141E-02
DAV:   6    -0.500283184143E+02    0.10366E-05   -0.14659E-05  2337   0.585E-02    0.267E-03
DAV:   7    -0.500283187781E+02   -0.36380E-06   -0.31814E-06  1768   0.226E-02
  16 F= -.50028319E+02 E0= -.50009235E+02  d E =-.307236E-02
       N       E                     dE             d eps       ncg     rms          rms(c)
DAV:   1    -0.500354401022E+02   -0.71217E-02   -0.10337E+00  2220   0.285E+00    0.142E-01
DAV:   2    -0.500370655811E+02   -0.16255E-02   -0.17857E-02  3129   0.613E-01    0.942E-02
DAV:   3    -0.500371713598E+02   -0.10578E-03   -0.29473E-03  3024   0.321E-01    0.926E-02
DAV:   4    -0.500370443028E+02    0.12706E-03   -0.27132E-03  3164   0.449E-01    0.598E-02
DAV:   5    -0.500370411037E+02    0.31991E-05   -0.72607E-04  3102   0.396E-01    0.402E-02
DAV:   6    -0.500370282390E+02    0.12865E-04   -0.11526E-04  3216   0.205E-01    0.875E-03
DAV:   7    -0.500370279432E+02    0.29578E-06   -0.19649E-05  2551   0.551E-02    0.574E-03
DAV:   8    -0.500370278558E+02    0.87428E-07   -0.35901E-06  1656   0.324E-02
  17 F= -.50037028E+02 E0= -.50017968E+02  d E =-.117814E-01
       N       E                     dE             d eps       ncg     rms          rms(c)
DAV:   1    -0.500457986505E+02   -0.87707E-02   -0.41331E+00  2220   0.569E+00    0.284E-01
DAV:   2    -0.500524831941E+02   -0.66845E-02   -0.73045E-02  3145   0.129E+00    0.194E-01
DAV:   3    -0.500531488110E+02   -0.66562E-03   -0.16360E-02  3295   0.107E+00    0.206E-01
DAV:   4    -0.500522602652E+02    0.88855E-03   -0.12235E-02  3283   0.998E-01    0.111E-01
DAV:   5    -0.500522652126E+02   -0.49475E-05   -0.17561E-03  3159   0.563E-01    0.666E-02
DAV:   6    -0.500522417853E+02    0.23427E-04   -0.41838E-04  3192   0.448E-01    0.263E-02
DAV:   7    -0.500522332248E+02    0.85605E-05   -0.91360E-05  3331   0.165E-01    0.998E-03
DAV:   8    -0.500522329625E+02    0.26234E-06   -0.12869E-05  2272   0.364E-02    0.682E-03
DAV:   9    -0.500522322985E+02    0.66397E-06   -0.46672E-06  1763   0.307E-02
  18 F= -.50052232E+02 E0= -.50033224E+02  d E =-.269859E-01
       N       E                     dE             d eps       ncg     rms          rms(c)
DAV:   1    -0.500464462824E+02    0.57867E-02   -0.16512E+01  2220   0.114E+01    0.571E-01
DAV:   2    -0.500751270737E+02   -0.28681E-01   -0.31327E-01  3222   0.283E+00    0.429E-01
DAV:   3    -0.500777087891E+02   -0.25817E-02   -0.81825E-02  3144   0.278E+00    0.439E-01
DAV:   4    -0.500734722594E+02    0.42365E-02   -0.53520E-02  3443   0.211E+00    0.221E-01
DAV:   5    -0.500734710146E+02    0.12447E-05   -0.74276E-03  3312   0.751E-01    0.125E-01
DAV:   6    -0.500733977752E+02    0.73239E-04   -0.19071E-03  3336   0.628E-01    0.530E-02
DAV:   7    -0.500733705840E+02    0.27191E-04   -0.29695E-04  3123   0.330E-01    0.196E-02
DAV:   8    -0.500733688007E+02    0.17834E-05   -0.45856E-05  3416   0.778E-02    0.132E-02
DAV:   9    -0.500733659564E+02    0.28443E-05   -0.19644E-05  2738   0.574E-02    0.644E-03
DAV:  10    -0.500733660019E+02   -0.45518E-07   -0.57446E-06  1909   0.387E-02
  19 F= -.50073366E+02 E0= -.50054451E+02  d E =-.481196E-01
       N       E                     dE             d eps       ncg     rms          rms(c)
DAV:   1    -0.499609443996E+02    0.11242E+00   -0.65910E+01  2220   0.228E+01    0.117E+00
DAV:   2    -0.500929646065E+02   -0.13202E+00   -0.14372E+00  3304   0.651E+00    0.961E-01
DAV:   3    -0.501006441694E+02   -0.76796E-02   -0.39466E-01  3212   0.626E+00    0.893E-01
DAV:   4    -0.500822654788E+02    0.18379E-01   -0.22264E-01  3528   0.435E+00    0.468E-01
DAV:   5    -0.500818974675E+02    0.36801E-03   -0.28737E-02  3401   0.142E+00    0.279E-01
DAV:   6    -0.500817138782E+02    0.18359E-03   -0.88216E-03  3321   0.125E+00    0.129E-01
DAV:   7    -0.500815605654E+02    0.15331E-03   -0.16306E-03  3112   0.717E-01    0.437E-02
DAV:   8    -0.500815460722E+02    0.14493E-04   -0.22104E-04  3369   0.228E-01    0.297E-02
DAV:   9    -0.500815355973E+02    0.10475E-04   -0.66005E-05  3209   0.137E-01    0.170E-02
DAV:  10    -0.500815334844E+02    0.21129E-05   -0.38189E-05  3187   0.796E-02    0.788E-03
DAV:  11    -0.500815344905E+02   -0.10061E-05   -0.74623E-06  2144   0.393E-02    0.365E-03
DAV:  12    -0.500815360108E+02   -0.15202E-05   -0.18996E-06  1540   0.157E-02    0.128E-03
DAV:  13    -0.500815369208E+02   -0.91002E-06   -0.94570E-07  1465   0.940E-03
  20 F= -.50081537E+02 E0= -.50062784E+02  d E =-.562905E-01
       N       E                     dE             d eps       ncg     rms          rms(c)
DAV:   1    -0.500840485018E+02   -0.25125E-02   -0.17726E+00  2220   0.359E+00    0.212E-01
DAV:   2    -0.500881262409E+02   -0.40777E-02   -0.48527E-02  3240   0.108E+00    0.238E-01
DAV:   3    -0.500873687717E+02    0.75747E-03   -0.23422E-02  3352   0.130E+00    0.180E-01
DAV:   4    -0.500868351737E+02    0.53360E-03   -0.40979E-03  3250   0.705E-01    0.100E-01
DAV:   5    -0.500867604767E+02    0.74697E-04   -0.65829E-04  3265   0.433E-01    0.562E-02
DAV:   6    -0.500867276283E+02    0.32848E-04   -0.29175E-04  3208   0.342E-01    0.250E-02
DAV:   7    -0.500867206663E+02    0.69620E-05   -0.71523E-05  3402   0.101E-01    0.958E-03
DAV:   8    -0.500867257913E+02   -0.51250E-05   -0.18235E-05  2056   0.524E-02    0.702E-03
DAV:   9    -0.500867305135E+02   -0.47222E-05   -0.49643E-06  1962   0.434E-02    0.291E-03
DAV:  10    -0.500867360630E+02   -0.55495E-05   -0.22457E-06  1603   0.147E-02    0.170E-03
DAV:  11    -0.500867402080E+02   -0.41450E-05   -0.82153E-07  1489   0.909E-03    0.132E-03
DAV:  12    -0.500867471792E+02   -0.69712E-05   -0.86094E-07  1582   0.104E-02    0.116E-03
DAV:  13    -0.500867522175E+02   -0.50383E-05   -0.55276E-07  1515   0.725E-03    0.563E-04
DAV:  14    -0.500867548563E+02   -0.26388E-05   -0.34398E-07  1482   0.351E-03    0.565E-04
DAV:  15    -0.500867589810E+02   -0.41247E-05   -0.37003E-07  1486   0.421E-03    0.435E-04
DAV:  16    -0.500867604608E+02   -0.14799E-05   -0.15757E-07  1489   0.298E-03    0.246E-04
DAV:  17    -0.500867615389E+02   -0.10781E-05   -0.10408E-07  1450   0.186E-03    0.164E-04
DAV:  18    -0.500867620514E+02   -0.51249E-06   -0.55703E-08  1442   0.130E-03
  21 F= -.50086762E+02 E0= -.50068094E+02  d E =-.522513E-02
       N       E                     dE             d eps       ncg     rms          rms(c)
DAV:   1    -0.500867874598E+02   -0.25921E-04   -0.81265E-02  2220   0.765E-01    0.460E-02
DAV:   2    -0.500869692129E+02   -0.18175E-03   -0.21699E-03  3166   0.219E-01    0.497E-02
DAV:   3    -0.500869394452E+02    0.29768E-04   -0.10772E-03  3343   0.276E-01    0.392E-02
DAV:   4    -0.500869132007E+02    0.26244E-04   -0.20829E-04  2903   0.168E-01    0.216E-02
DAV:   5    -0.500869092172E+02    0.39835E-05   -0.31397E-05  3180   0.101E-01    0.122E-02
DAV:   6    -0.500869073203E+02    0.18969E-05   -0.11695E-05  2282   0.681E-02    0.488E-03
DAV:   7    -0.500869069450E+02    0.37524E-06   -0.31140E-06  1593   0.209E-02
  22 F= -.50086907E+02 E0= -.50068257E+02  d E =-.537002E-02
       N       E                     dE             d eps       ncg     rms          rms(c)
DAV:   1    -0.500938145348E+02   -0.69072E-02   -0.20633E+00  2220   0.397E+00    0.188E-01
DAV:   2    -0.500976055979E+02   -0.37911E-02   -0.40456E-02  3156   0.144E+00    0.188E-01
DAV:   3    -0.500973223521E+02    0.28325E-03   -0.38189E-03  3141   0.103E+00    0.107E-01
DAV:   4    -0.500973876992E+02   -0.65347E-04   -0.38781E-03  3502   0.579E-01    0.895E-02
DAV:   5    -0.500972593837E+02    0.12832E-03   -0.33258E-03  3712   0.472E-01    0.606E-02
DAV:   6    -0.500971947066E+02    0.64677E-04   -0.57477E-04  3327   0.204E-01    0.132E-02
DAV:   7    -0.500971974689E+02   -0.27623E-05   -0.56754E-05  3250   0.852E-02    0.903E-03
DAV:   8    -0.500971968936E+02    0.57530E-06   -0.67874E-06  1938   0.403E-02
  23 F= -.50097197E+02 E0= -.50078502E+02  d E =-.102899E-01
       N       E                     dE             d eps       ncg     rms          rms(c)
DAV:   1    -0.500838757677E+02    0.13322E-01   -0.18516E+01  2220   0.119E+01    0.591E-01
DAV:   2    -0.501225311524E+02   -0.38655E-01   -0.41548E-01  3236   0.486E+00    0.613E-01
DAV:   3    -0.501193876071E+02    0.31435E-02   -0.44536E-02  3212   0.350E+00    0.334E-01
DAV:   4    -0.501195062887E+02   -0.11868E-03   -0.40041E-02  3576   0.181E+00    0.275E-01
DAV:   5    -0.501182820392E+02    0.12242E-02   -0.25376E-02  3717   0.122E+00    0.177E-01
DAV:   6    -0.501178922287E+02    0.38981E-03   -0.39530E-03  3364   0.475E-01    0.488E-02
DAV:   7    -0.501179076032E+02   -0.15374E-04   -0.47889E-04  3161   0.268E-01    0.277E-02
DAV:   8    -0.501179075739E+02    0.29249E-07   -0.89677E-05  3217   0.140E-01    0.176E-02
DAV:   9    -0.501179131659E+02   -0.55920E-05   -0.23782E-05  2973   0.816E-02    0.116E-02
DAV:  10    -0.501179174329E+02   -0.42670E-05   -0.93243E-06  2091   0.521E-02    0.485E-03
DAV:  11    -0.501179213239E+02   -0.38910E-05   -0.49508E-06  1722   0.189E-02    0.135E-03
DAV:  12    -0.501179262945E+02   -0.49706E-05   -0.11647E-06  1548   0.856E-03    0.106E-03
DAV:  13    -0.501179281060E+02   -0.18115E-05   -0.40299E-07  1520   0.766E-03    0.795E-04
DAV:  14    -0.501179308100E+02   -0.27040E-05   -0.22090E-07  1446   0.450E-03    0.530E-04
DAV:  15    -0.501179356597E+02   -0.48497E-05   -0.43842E-07  1613   0.348E-03    0.388E-04
DAV:  16    -0.501179369828E+02   -0.13231E-05   -0.12138E-07  1529   0.254E-03    0.271E-04
DAV:  17    -0.501179384940E+02   -0.15112E-05   -0.12364E-07  1446   0.188E-03    0.248E-04
DAV:  18    -0.501179391765E+02   -0.68251E-06   -0.74450E-08  1474   0.171E-03
  24 F= -.50117939E+02 E0= -.50099098E+02  d E =-.310322E-01
       N       E                     dE             d eps       ncg     rms          rms(c)
DAV:   1    -0.499607103446E+02    0.15723E+00   -0.73789E+01  2220   0.239E+01    0.122E+00
DAV:   2    -0.501341529431E+02   -0.17344E+00   -0.18566E+00  3262   0.992E+00    0.119E+00
DAV:   3    -0.501248674190E+02    0.92855E-02   -0.22857E-01  3252   0.783E+00    0.715E-01
DAV:   4    -0.501206249977E+02    0.42424E-02   -0.17390E-01  3599   0.375E+00    0.534E-01
DAV:   5    -0.501169803711E+02    0.36446E-02   -0.72779E-02  3569   0.200E+00    0.357E-01
DAV:   6    -0.501155884238E+02    0.13919E-02   -0.12041E-02  3356   0.824E-01    0.999E-02
DAV:   7    -0.501157011533E+02   -0.11273E-03   -0.17119E-03  3249   0.464E-01    0.522E-02
DAV:   8    -0.501156984354E+02    0.27179E-05   -0.31188E-04  3257   0.269E-01    0.339E-02
DAV:   9    -0.501157102174E+02   -0.11782E-04   -0.92945E-05  3115   0.168E-01    0.221E-02
DAV:  10    -0.501157235845E+02   -0.13367E-04   -0.34392E-05  3104   0.955E-02    0.102E-02
DAV:  11    -0.501157332883E+02   -0.97038E-05   -0.17593E-05  2211   0.389E-02    0.297E-03
DAV:  12    -0.501157464250E+02   -0.13137E-04   -0.23918E-06  1706   0.101E-02    0.152E-03
DAV:  13    -0.501157536582E+02   -0.72332E-05   -0.75698E-07  1522   0.813E-03    0.116E-03
DAV:  14    -0.501157609994E+02   -0.73412E-05   -0.57098E-07  1580   0.909E-03    0.116E-03
DAV:  15    -0.501157692856E+02   -0.82862E-05   -0.63070E-07  1613   0.679E-03    0.594E-04
DAV:  16    -0.501157747046E+02   -0.54190E-05   -0.43502E-07  1530   0.309E-03    0.507E-04
DAV:  17    -0.501157798790E+02   -0.51744E-05   -0.48708E-07  1606   0.401E-03    0.477E-04
DAV:  18    -0.501157811402E+02   -0.12612E-05   -0.18003E-07  1512   0.259E-03    0.206E-04
DAV:  19    -0.501157815842E+02   -0.44395E-06   -0.81135E-08  1398   0.141E-03
  25 F= -.50115782E+02 E0= -.50096592E+02  d E =-.288746E-01
       N       E                     dE             d eps       ncg     rms          rms(c)
DAV:   1    -0.500880121147E+02    0.27769E-01   -0.21055E+01  2220   0.127E+01    0.526E-01
DAV:   2    -0.501248937393E+02   -0.36882E-01   -0.38633E-01  2949   0.281E+00    0.385E-01
DAV:   3    -0.501245955114E+02    0.29823E-03   -0.14482E-02  3160   0.132E+00    0.264E-01
DAV:   4    -0.501243965343E+02    0.19898E-03   -0.36940E-03  3234   0.109E+00    0.186E-01
DAV:   5    -0.501248440033E+02   -0.44747E-03   -0.97311E-03  3545   0.997E-01    0.146E-01
DAV:   6    -0.501242873196E+02    0.55668E-03   -0.11220E-02  3765   0.942E-01    0.765E-02
DAV:   7    -0.501241477484E+02    0.13957E-03   -0.13199E-03  3426   0.436E-01    0.265E-02
DAV:   8    -0.501241505690E+02   -0.28206E-05   -0.80486E-05  3450   0.102E-01    0.164E-02
DAV:   9    -0.501241516595E+02   -0.10905E-05   -0.17922E-05  2392   0.768E-02    0.841E-03
DAV:  10    -0.501241546626E+02   -0.30031E-05   -0.12690E-05  2642   0.434E-02    0.358E-03
DAV:  11    -0.501241584602E+02   -0.37976E-05   -0.22094E-06  1620   0.141E-02    0.169E-03
DAV:  12    -0.501241617263E+02   -0.32661E-05   -0.73795E-07  1481   0.118E-02    0.145E-03
DAV:  13    -0.501241636593E+02   -0.19330E-05   -0.35713E-07  1443   0.870E-03    0.728E-04
DAV:  14    -0.501241670203E+02   -0.33610E-05   -0.36394E-07  1509   0.354E-03    0.568E-04
DAV:  15    -0.501241712092E+02   -0.41889E-05   -0.37065E-07  1539   0.420E-03    0.519E-04
DAV:  16    -0.501241727701E+02   -0.15609E-05   -0.17175E-07  1496   0.262E-03    0.339E-04
DAV:  17    -0.501241738768E+02   -0.11067E-05   -0.10806E-07  1429   0.195E-03    0.263E-04
DAV:  18    -0.501241746959E+02   -0.81904E-06   -0.73728E-08  1458   0.176E-03
  26 F= -.50124175E+02 E0= -.50105180E+02  d E =-.372678E-01
       N       E                     dE             d eps       ncg     rms          rms(c)
DAV:   1    -0.501273536408E+02   -0.31798E-02   -0.12946E+00  2220   0.313E+00    0.146E-01
DAV:   2    -0.501301061590E+02   -0.27525E-02   -0.29893E-02  3149   0.120E+00    0.178E-01
DAV:   3    -0.501298026243E+02    0.30353E-03   -0.10325E-02  3275   0.107E+00    0.119E-01
DAV:   4    -0.501295645688E+02    0.23806E-03   -0.25489E-03  3354   0.421E-01    0.740E-02
DAV:   5    -0.501295513159E+02    0.13253E-04   -0.54416E-04  3421   0.290E-01    0.557E-02
DAV:   6    -0.501295115754E+02    0.39741E-04   -0.19333E-04  3240   0.221E-01    0.126E-02
DAV:   7    -0.501295112289E+02    0.34642E-06   -0.45005E-05  3125   0.614E-02    0.744E-03
DAV:   8    -0.501295115864E+02   -0.35745E-06   -0.47582E-06  1952   0.358E-02
  27 F= -.50129512E+02 E0= -.50110531E+02  d E =-.533689E-02
       N       E                     dE             d eps       ncg     rms          rms(c)
DAV:   1    -0.501221304303E+02    0.73808E-02   -0.67965E+00  2220   0.717E+00    0.343E-01
DAV:   2    -0.501375912325E+02   -0.15461E-01   -0.16802E-01  3192   0.301E+00    0.431E-01
DAV:   3    -0.501357303487E+02    0.18609E-02   -0.53932E-02  3320   0.256E+00    0.277E-01
DAV:   4    -0.501344994742E+02    0.12309E-02   -0.13804E-02  3359   0.976E-01    0.179E-01
DAV:   5    -0.501343845376E+02    0.11494E-03   -0.28598E-03  3476   0.610E-01    0.130E-01
DAV:   6    -0.501342044651E+02    0.18007E-03   -0.10491E-03  3232   0.476E-01    0.322E-02
DAV:   7    -0.501342061471E+02   -0.16821E-05   -0.23054E-04  3314   0.171E-01    0.186E-02
DAV:   8    -0.501342077130E+02   -0.15659E-05   -0.32670E-05  3288   0.927E-02    0.115E-02
DAV:   9    -0.501342136824E+02   -0.59694E-05   -0.10141E-05  1971   0.513E-02    0.583E-03
DAV:  10    -0.501342185834E+02   -0.49010E-05   -0.55541E-06  2034   0.272E-02    0.294E-03
DAV:  11    -0.501342238015E+02   -0.52181E-05   -0.16743E-06  1483   0.110E-02    0.173E-03
DAV:  12    -0.501342321937E+02   -0.83921E-05   -0.10475E-06  1606   0.740E-03    0.989E-04
DAV:  13    -0.501342386159E+02   -0.64223E-05   -0.58439E-07  1561   0.569E-03    0.817E-04
DAV:  14    -0.501342416187E+02   -0.30028E-05   -0.25156E-07  1452   0.553E-03    0.694E-04
DAV:  15    -0.501342470098E+02   -0.53911E-05   -0.50529E-07  1582   0.385E-03    0.282E-04
DAV:  16    -0.501342488814E+02   -0.18715E-05   -0.17203E-07  1489   0.235E-03    0.264E-04
DAV:  17    -0.501342500730E+02   -0.11916E-05   -0.78859E-08  1466   0.207E-03    0.202E-04
DAV:  18    -0.501342508662E+02   -0.79317E-06   -0.45690E-08  1473   0.161E-03
  28 F= -.50134251E+02 E0= -.50115289E+02  d E =-.100762E-01
       N       E                     dE             d eps       ncg     rms          rms(c)
DAV:   1    -0.501342399136E+02    0.10159E-04   -0.18822E-02  2318   0.375E-01    0.171E-02
DAV:   2    -0.501342750374E+02   -0.35124E-04   -0.39182E-04  3216   0.117E-01    0.183E-02
DAV:   3    -0.501342732023E+02    0.18351E-05   -0.13444E-04  3166   0.114E-01    0.144E-02
DAV:   4    -0.501342694267E+02    0.37756E-05   -0.34215E-05  1771   0.542E-02    0.833E-03
DAV:   5    -0.501342696106E+02   -0.18394E-06   -0.91214E-06  2010   0.429E-02
  29 F= -.50134270E+02 E0= -.50115308E+02  d E =-.100949E-01
       N       E                     dE             d eps       ncg     rms          rms(c)
DAV:   1    -0.501353573803E+02   -0.10880E-02   -0.10135E-01  2220   0.852E-01    0.428E-02
DAV:   2    -0.501355741326E+02   -0.21675E-03   -0.22980E-03  3256   0.334E-01    0.436E-02
DAV:   3    -0.501355572791E+02    0.16853E-04   -0.15438E-04  3180   0.226E-01    0.240E-02
DAV:   4    -0.501355610738E+02   -0.37946E-05   -0.13943E-04  2352   0.115E-01    0.203E-02
DAV:   5    -0.501355592038E+02    0.18700E-05   -0.20521E-04  2105   0.126E-01    0.170E-02
DAV:   6    -0.501355525332E+02    0.66706E-05   -0.50691E-05  2444   0.635E-02    0.237E-03
DAV:   7    -0.501355529767E+02   -0.44343E-06   -0.46803E-06  2200   0.170E-02
  30 F= -.50135553E+02 E0= -.50116587E+02  d E =-.128337E-02
       N       E                     dE             d eps       ncg     rms          rms(c)
DAV:   1    -0.501374538997E+02   -0.19014E-02   -0.91186E-01  2220   0.255E+00    0.129E-01
DAV:   2    -0.501393113906E+02   -0.18575E-02   -0.19781E-02  3128   0.974E-01    0.129E-01
DAV:   3    -0.501392159916E+02    0.95399E-04   -0.25706E-03  3116   0.762E-01    0.827E-02
DAV:   4    -0.501391769044E+02    0.39087E-04   -0.20096E-03  3500   0.401E-01    0.601E-02
DAV:   5    -0.501391498703E+02    0.27034E-04   -0.10788E-03  3156   0.261E-01    0.423E-02
DAV:   6    -0.501391291860E+02    0.20684E-04   -0.19735E-04  3284   0.130E-01    0.885E-03
DAV:   7    -0.501391306046E+02   -0.14186E-05   -0.25873E-05  3200   0.589E-02    0.631E-03
DAV:   8    -0.501391303259E+02    0.27870E-06   -0.31720E-06  1796   0.317E-02
  31 F= -.50139130E+02 E0= -.50120162E+02  d E =-.486072E-02
       N       E                     dE             d eps       ncg     rms          rms(c)
DAV:   1    -0.501381776275E+02    0.95298E-03   -0.36432E+00  2220   0.509E+00    0.264E-01
DAV:   2    -0.501460188331E+02   -0.78412E-02   -0.83564E-02  3152   0.207E+00    0.273E-01
DAV:   3    -0.501455228098E+02    0.49602E-03   -0.11220E-02  3170   0.160E+00    0.167E-01
DAV:   4    -0.501453470617E+02    0.17575E-03   -0.81825E-03  3532   0.807E-01    0.123E-01
DAV:   5    -0.501451888599E+02    0.15820E-03   -0.41126E-03  3324   0.518E-01    0.854E-02
DAV:   6    -0.501451193240E+02    0.69536E-04   -0.76739E-04  3350   0.238E-01    0.183E-02
DAV:   7    -0.501451273667E+02   -0.80427E-05   -0.99590E-05  3216   0.107E-01    0.123E-02
DAV:   8    -0.501451265444E+02    0.82227E-06   -0.12329E-05  2193   0.582E-02    0.795E-03
DAV:   9    -0.501451260777E+02    0.46671E-06   -0.45785E-06  1820   0.323E-02
  32 F= -.50145126E+02 E0= -.50126147E+02  d E =-.108565E-01
       N       E                     dE             d eps       ncg     rms          rms(c)
DAV:   1    -0.501226511359E+02    0.22475E-01   -0.14532E+01  2220   0.102E+01    0.539E-01
DAV:   2    -0.501563499542E+02   -0.33699E-01   -0.35796E-01  3229   0.435E+00    0.559E-01
DAV:   3    -0.501543440721E+02    0.20059E-02   -0.50404E-02  3208   0.347E+00    0.342E-01
DAV:   4    -0.501533002892E+02    0.10438E-02   -0.34146E-02  3595   0.163E+00    0.248E-01
DAV:   5    -0.501526832451E+02    0.61704E-03   -0.14604E-02  3395   0.931E-01    0.173E-01
DAV:   6    -0.501523471267E+02    0.33612E-03   -0.27296E-03  3389   0.454E-01    0.416E-02
DAV:   7    -0.501523782850E+02   -0.31158E-04   -0.40832E-04  3177   0.244E-01    0.256E-02
DAV:   8    -0.501523756540E+02    0.26310E-05   -0.64611E-05  3226   0.136E-01    0.160E-02
DAV:   9    -0.501523740566E+02    0.15975E-05   -0.16341E-05  2289   0.646E-02    0.948E-03
DAV:  10    -0.501523738910E+02    0.16560E-06   -0.78233E-06  2121   0.408E-02
  33 F= -.50152374E+02 E0= -.50133372E+02  d E =-.181043E-01
       N       E                     dE             d eps       ncg     rms          rms(c)
DAV:   1    -0.500150747737E+02    0.13730E+00   -0.57867E+01  2220   0.204E+01    0.111E+00
DAV:   2    -0.501628377647E+02   -0.14776E+00   -0.15695E+00  3268   0.870E+00    0.109E+00
DAV:   3    -0.501569873510E+02    0.58504E-02   -0.22827E-01  3215   0.743E+00    0.716E-01
DAV:   4    -0.501502284521E+02    0.67589E-02   -0.14008E-01  3609   0.340E+00    0.499E-01
DAV:   5    -0.501485841955E+02    0.16443E-02   -0.47222E-02  3336   0.171E+00    0.357E-01
DAV:   6    -0.501473558305E+02    0.12284E-02   -0.10972E-02  3382   0.999E-01    0.926E-02
DAV:   7    -0.501474772027E+02   -0.12137E-03   -0.16647E-03  3336   0.483E-01    0.514E-02
DAV:   8    -0.501474589161E+02    0.18287E-04   -0.25783E-04  3240   0.269E-01    0.325E-02
DAV:   9    -0.501474500860E+02    0.88301E-05   -0.68520E-05  3161   0.143E-01    0.197E-02
DAV:  10    -0.501474488572E+02    0.12288E-05   -0.27108E-05  2643   0.799E-02    0.793E-03
DAV:  11    -0.501474492616E+02   -0.40440E-06   -0.13377E-05  2224   0.326E-02    0.276E-03
DAV:  12    -0.501474505548E+02   -0.12932E-05   -0.16179E-06  1483   0.140E-02    0.141E-03
DAV:  13    -0.501474511408E+02   -0.58598E-06   -0.63385E-07  1456   0.114E-02
  34 F= -.50147451E+02 E0= -.50128389E+02  d E =-.131815E-01
       N       E                     dE             d eps       ncg     rms          rms(c)
DAV:   1    -0.501044848772E+02    0.42966E-01   -0.25936E+01  2220   0.135E+01    0.621E-01
DAV:   2    -0.501550479941E+02   -0.50563E-01   -0.52731E-01  2891   0.305E+00    0.464E-01
DAV:   3    -0.501547492490E+02    0.29875E-03   -0.23290E-02  3134   0.138E+00    0.342E-01
DAV:   4    -0.501561878569E+02   -0.14386E-02   -0.33463E-02  3505   0.157E+00    0.306E-01
DAV:   5    -0.501554319074E+02    0.75595E-03   -0.54779E-02  3683   0.229E+00    0.267E-01
DAV:   6    -0.501536000507E+02    0.18319E-02   -0.12887E-02  3260   0.146E+00    0.482E-02
DAV:   7    -0.501536606406E+02   -0.60590E-04   -0.70052E-04  3320   0.257E-01    0.368E-02
DAV:   8    -0.501536509854E+02    0.96552E-05   -0.11508E-04  3139   0.165E-01    0.221E-02
DAV:   9    -0.501536455724E+02    0.54130E-05   -0.34358E-05  3432   0.842E-02    0.899E-03
DAV:  10    -0.501536456388E+02   -0.66328E-07   -0.97056E-06  2464   0.439E-02
  35 F= -.50153646E+02 E0= -.50134625E+02  d E =-.193760E-01
       N       E                     dE             d eps       ncg     rms          rms(c)
DAV:   1    -0.501546950320E+02   -0.10495E-02   -0.82166E-01  2220   0.234E+00    0.130E-01
DAV:   2    -0.501564397851E+02   -0.17448E-02   -0.19687E-02  2981   0.588E-01    0.126E-01
DAV:   3    -0.501564095632E+02    0.30222E-04   -0.68351E-03  3274   0.711E-01    0.113E-01
DAV:   4    -0.501561711371E+02    0.23843E-03   -0.21090E-03  3265   0.476E-01    0.643E-02
DAV:   5    -0.501561554615E+02    0.15676E-04   -0.28826E-04  3369   0.280E-01    0.339E-02
DAV:   6    -0.501561435992E+02    0.11862E-04   -0.12408E-04  3230   0.233E-01    0.140E-02
DAV:   7    -0.501561413452E+02    0.22540E-05   -0.31692E-05  2872   0.648E-02    0.544E-03
DAV:   8    -0.501561433018E+02   -0.19566E-05   -0.56159E-06  1978   0.233E-02    0.362E-03
DAV:   9    -0.501561449886E+02   -0.16868E-05   -0.16941E-06  1490   0.207E-02    0.189E-03
DAV:  10    -0.501561465781E+02   -0.15896E-05   -0.64296E-07  1498   0.133E-02    0.103E-03
DAV:  11    -0.501561478322E+02   -0.12540E-05   -0.37786E-07  1465   0.599E-03    0.758E-04
DAV:  12    -0.501561499518E+02   -0.21196E-05   -0.31515E-07  1414   0.556E-03    0.745E-04
DAV:  13    -0.501561518961E+02   -0.19443E-05   -0.29844E-07  1507   0.506E-03    0.352E-04
DAV:  14    -0.501561529336E+02   -0.10375E-05   -0.17784E-07  1458   0.264E-03    0.309E-04
DAV:  15    -0.501561543731E+02   -0.14396E-05   -0.16140E-07  1421   0.242E-03    0.301E-04
DAV:  16    -0.501561548359E+02   -0.46278E-06   -0.77380E-08  1457   0.176E-03
  36 F= -.50156155E+02 E0= -.50137191E+02  d E =-.250920E-02
       N       E                     dE             d eps       ncg     rms          rms(c)
DAV:   1    -0.501544989676E+02    0.16554E-02   -0.11843E+00  2220   0.280E+00    0.157E-01
DAV:   2    -0.501570709886E+02   -0.25720E-02   -0.28943E-02  3122   0.818E-01    0.158E-01
DAV:   3    -0.501569548673E+02    0.11612E-03   -0.10097E-02  3392   0.915E-01    0.132E-01
DAV:   4    -0.501566314608E+02    0.32341E-03   -0.28839E-03  3311   0.526E-01    0.760E-02
DAV:   5    -0.501566078707E+02    0.23590E-04   -0.49684E-04  3259   0.308E-01    0.368E-02
DAV:   6    -0.501565911527E+02    0.16718E-04   -0.17291E-04  3182   0.285E-01    0.180E-02
DAV:   7    -0.501565871592E+02    0.39935E-05   -0.38065E-05  2800   0.996E-02    0.637E-03
DAV:   8    -0.501565895187E+02   -0.23595E-05   -0.85613E-06  2280   0.230E-02    0.453E-03
DAV:   9    -0.501565911452E+02   -0.16265E-05   -0.25125E-06  1729   0.212E-02    0.210E-03
DAV:  10    -0.501565929719E+02   -0.18267E-05   -0.68628E-07  1521   0.124E-02    0.110E-03
DAV:  11    -0.501565944126E+02   -0.14407E-05   -0.40714E-07  1443   0.727E-03    0.906E-04
DAV:  12    -0.501565973799E+02   -0.29673E-05   -0.39427E-07  1422   0.577E-03    0.580E-04
DAV:  13    -0.501565992593E+02   -0.18794E-05   -0.27988E-07  1505   0.401E-03    0.373E-04
DAV:  14    -0.501566004792E+02   -0.12199E-05   -0.15315E-07  1445   0.266E-03    0.310E-04
DAV:  15    -0.501566022214E+02   -0.17421E-05   -0.18553E-07  1422   0.262E-03    0.264E-04
DAV:  16    -0.501566026224E+02   -0.40108E-06   -0.67752E-08  1472   0.186E-03
  37 F= -.50156603E+02 E0= -.50137708E+02  d E =-.295698E-02
       N       E                     dE             d eps       ncg     rms          rms(c)
DAV:   1    -0.501565497525E+02    0.52469E-04   -0.12663E-01  2220   0.911E-01    0.519E-02
DAV:   2    -0.501568164260E+02   -0.26667E-03   -0.30417E-03  3119   0.240E-01    0.496E-02
DAV:   3    -0.501568129782E+02    0.34478E-05   -0.11010E-03  3398   0.289E-01    0.443E-02
DAV:   4    -0.501567741022E+02    0.38876E-04   -0.34622E-04  2730   0.192E-01    0.247E-02
DAV:   5    -0.501567717649E+02    0.23372E-05   -0.49215E-05  3180   0.120E-01    0.143E-02
DAV:   6    -0.501567693762E+02    0.23888E-05   -0.18537E-05  2492   0.921E-02    0.485E-03
DAV:   7    -0.501567694262E+02   -0.50029E-07   -0.56268E-06  1816   0.202E-02
  38 F= -.50156769E+02 E0= -.50137851E+02  d E =-.312379E-02
       N       E                     dE             d eps       ncg     rms          rms(c)
DAV:   1    -0.501582804779E+02   -0.15111E-02   -0.63394E-01  2220   0.204E+00    0.109E-01
DAV:   2    -0.501594843179E+02   -0.12038E-02   -0.12875E-02  2831   0.463E-01    0.771E-02
DAV:   3    -0.501595499105E+02   -0.65593E-04   -0.16438E-03  3238   0.403E-01    0.723E-02
DAV:   4    -0.501594808632E+02    0.69047E-04   -0.16941E-03  3299   0.391E-01    0.481E-02
DAV:   5    -0.501594682368E+02    0.12626E-04   -0.48563E-04  3379   0.186E-01    0.203E-02
DAV:   6    -0.501594633891E+02    0.48478E-05   -0.82674E-05  3216   0.134E-01    0.816E-03
DAV:   7    -0.501594633856E+02    0.34925E-08   -0.83949E-06  2169   0.448E-02
  39 F= -.50159463E+02 E0= -.50140570E+02  d E =-.269396E-02
       N       E                     dE             d eps       ncg     rms          rms(c)
DAV:   1    -0.501553514273E+02    0.41120E-02   -0.56964E+00  2220   0.610E+00    0.335E-01
DAV:   2    -0.501667183206E+02   -0.11367E-01   -0.12104E-01  2969   0.142E+00    0.241E-01
DAV:   3    -0.501671511240E+02   -0.43280E-03   -0.14259E-02  3137   0.124E+00    0.214E-01
DAV:   4    -0.501666661483E+02    0.48498E-03   -0.15619E-02  3275   0.121E+00    0.152E-01
DAV:   5    -0.501664559856E+02    0.21016E-03   -0.53010E-03  3379   0.579E-01    0.797E-02
DAV:   6    -0.501663772248E+02    0.78761E-04   -0.88968E-04  3315   0.400E-01    0.283E-02
DAV:   7    -0.501663792960E+02   -0.20713E-05   -0.11506E-04  3305   0.153E-01    0.152E-02
DAV:   8    -0.501663775752E+02    0.17209E-05   -0.13487E-05  2184   0.626E-02    0.993E-03
DAV:   9    -0.501663761510E+02    0.14242E-05   -0.79816E-06  2024   0.449E-02    0.358E-03
DAV:  10    -0.501663763208E+02   -0.16982E-06   -0.29608E-06  1639   0.213E-02
  40 F= -.50166376E+02 E0= -.50147560E+02  d E =-.960689E-02
       N       E                     dE             d eps       ncg     rms          rms(c)
DAV:   1    -0.501294774908E+02    0.36899E-01   -0.22694E+01  2220   0.122E+01    0.686E-01
DAV:   2    -0.501763724267E+02   -0.46895E-01   -0.50155E-01  3170   0.311E+00    0.514E-01
DAV:   3    -0.501779185975E+02   -0.15462E-02   -0.69382E-02  3161   0.286E+00    0.446E-01
DAV:   4    -0.501753147996E+02    0.26038E-02   -0.66106E-02  3306   0.250E+00    0.311E-01
DAV:   5    -0.501745137191E+02    0.80108E-03   -0.20377E-02  3437   0.110E+00    0.173E-01
DAV:   6    -0.501742258814E+02    0.28784E-03   -0.40103E-03  3314   0.767E-01    0.638E-02
DAV:   7    -0.501742205072E+02    0.53742E-05   -0.50354E-04  3204   0.330E-01    0.299E-02
DAV:   8    -0.501742137144E+02    0.67928E-05   -0.62260E-05  3296   0.130E-01    0.198E-02
DAV:   9    -0.501742082564E+02    0.54580E-05   -0.33715E-05  2922   0.943E-02    0.880E-03
DAV:  10    -0.501742084053E+02   -0.14892E-06   -0.10222E-05  2053   0.472E-02    0.389E-03
DAV:  11    -0.501742087401E+02   -0.33481E-06   -0.32279E-06  1635   0.186E-02
  41 F= -.50174209E+02 E0= -.50155547E+02  d E =-.174393E-01
       N       E                     dE             d eps       ncg     rms          rms(c)
DAV:   1    -0.501657936944E+02    0.84147E-02   -0.52016E+00  2220   0.578E+00    0.315E-01
DAV:   2    -0.501755109079E+02   -0.97172E-02   -0.10351E-01  2956   0.132E+00    0.222E-01
DAV:   3    -0.501759953880E+02   -0.48448E-03   -0.13623E-02  3179   0.117E+00    0.202E-01
DAV:   4    -0.501754878005E+02    0.50759E-03   -0.14668E-02  3309   0.117E+00    0.141E-01
DAV:   5    -0.501752689336E+02    0.21887E-03   -0.41509E-03  3622   0.481E-01    0.569E-02
DAV:   6    -0.501752423948E+02    0.26539E-04   -0.63786E-04  3298   0.295E-01    0.303E-02
DAV:   7    -0.501752356626E+02    0.67323E-05   -0.75961E-05  3174   0.150E-01    0.123E-02
DAV:   8    -0.501752344331E+02    0.12295E-05   -0.91060E-06  2288   0.391E-02    0.722E-03
DAV:   9    -0.501752338509E+02    0.58219E-06   -0.68914E-06  1914   0.390E-02
  42 F= -.50175234E+02 E0= -.50156645E+02  d E =-.184644E-01
       N       E                     dE             d eps       ncg     rms          rms(c)
DAV:   1    -0.501678137039E+02    0.74207E-02   -0.58047E+00  2220   0.612E+00    0.341E-01
DAV:   2    -0.501797321089E+02   -0.11918E-01   -0.13184E-01  3030   0.165E+00    0.317E-01
DAV:   3    -0.501798894062E+02   -0.15730E-03   -0.39374E-02  3336   0.180E+00    0.281E-01
DAV:   4    -0.501784118468E+02    0.14776E-02   -0.16296E-02  3273   0.125E+00    0.171E-01
DAV:   5    -0.501782760881E+02    0.13576E-03   -0.27326E-03  3298   0.715E-01    0.864E-02
DAV:   6    -0.501782091288E+02    0.66959E-04   -0.83163E-04  3192   0.644E-01    0.408E-02
DAV:   7    -0.501781842827E+02    0.24846E-04   -0.21546E-04  3372   0.239E-01    0.139E-02
DAV:   8    -0.501781905252E+02   -0.62425E-05   -0.27787E-05  3152   0.557E-02    0.988E-03
DAV:   9    -0.501781951048E+02   -0.45796E-05   -0.90391E-06  2016   0.559E-02    0.536E-03
DAV:  10    -0.501782007793E+02   -0.56745E-05   -0.35212E-06  1865   0.303E-02    0.216E-03
DAV:  11    -0.501782059104E+02   -0.51311E-05   -0.11701E-06  1482   0.111E-02    0.156E-03
DAV:  12    -0.501782122836E+02   -0.63732E-05   -0.10120E-06  1573   0.861E-03    0.117E-03
DAV:  13    -0.501782209408E+02   -0.86572E-05   -0.10894E-06  1582   0.779E-03    0.798E-04
DAV:  14    -0.501782237160E+02   -0.27752E-05   -0.34217E-07  1504   0.472E-03    0.614E-04
DAV:  15    -0.501782264548E+02   -0.27388E-05   -0.24569E-07  1455   0.416E-03    0.434E-04
DAV:  16    -0.501782289472E+02   -0.24924E-05   -0.26502E-07  1454   0.267E-03    0.228E-04
DAV:  17    -0.501782297313E+02   -0.78406E-06   -0.87850E-08  1480   0.209E-03
  43 F= -.50178230E+02 E0= -.50159775E+02  d E =-.299588E-02
       N       E                     dE             d eps       ncg     rms          rms(c)
DAV:   1    -0.501781081294E+02    0.12082E-03   -0.12020E-01  2220   0.873E-01    0.499E-02
DAV:   2    -0.501783376053E+02   -0.22948E-03   -0.25725E-03  3086   0.219E-01    0.436E-02
DAV:   3    -0.501783447104E+02   -0.71051E-05   -0.71274E-04  3279   0.210E-01    0.396E-02
DAV:   4    -0.501783182836E+02    0.26427E-04   -0.38972E-04  2758   0.204E-01    0.258E-02
DAV:   5    -0.501783132183E+02    0.50653E-05   -0.77838E-05  2565   0.143E-01    0.160E-02
DAV:   6    -0.501783103343E+02    0.28839E-05   -0.15677E-05  2634   0.771E-02    0.410E-03
DAV:   7    -0.501783105515E+02   -0.21714E-06   -0.45685E-06  2056   0.334E-02
  44 F= -.50178311E+02 E0= -.50159833E+02  d E =-.307670E-02
       N       E                     dE             d eps       ncg     rms          rms(c)
DAV:   1    -0.501790316478E+02   -0.72131E-03   -0.11421E+00  2220   0.272E+00    0.143E-01
DAV:   2    -0.501810491152E+02   -0.20175E-02   -0.21406E-02  3026   0.671E-01    0.106E-01
DAV:   3    -0.501811203948E+02   -0.71280E-04   -0.25063E-03  3055   0.614E-01    0.925E-02
DAV:   4    -0.501810513559E+02    0.69039E-04   -0.30653E-03  3300   0.555E-01    0.659E-02
DAV:   5    -0.501810030953E+02    0.48261E-04   -0.14318E-03  3637   0.249E-01    0.393E-02
DAV:   6    -0.501809703072E+02    0.32788E-04   -0.22507E-04  3352   0.151E-01    0.835E-03
DAV:   7    -0.501809718078E+02   -0.15006E-05   -0.21393E-05  3313   0.403E-02    0.669E-03
DAV:   8    -0.501809715759E+02    0.23190E-06   -0.28425E-06  1746   0.327E-02
  45 F= -.50180972E+02 E0= -.50162500E+02  d E =-.266102E-02
       N       E                     dE             d eps       ncg     rms          rms(c)
DAV:   1    -0.501681201009E+02    0.12852E-01   -0.10254E+01  2220   0.814E+00    0.443E-01
DAV:   2    -0.501877229737E+02   -0.19603E-01   -0.20891E-01  3232   0.219E+00    0.346E-01
DAV:   3    -0.501879640774E+02   -0.24110E-03   -0.23064E-02  2984   0.195E+00    0.280E-01
DAV:   4    -0.501875370604E+02    0.42702E-03   -0.27868E-02  3267   0.170E+00    0.213E-01
DAV:   5    -0.501870567579E+02    0.48030E-03   -0.14438E-02  3541   0.903E-01    0.138E-01
DAV:   6    -0.501867275728E+02    0.32919E-03   -0.24615E-03  3333   0.506E-01    0.311E-02
DAV:   7    -0.501867487490E+02   -0.21176E-04   -0.27425E-04  3352   0.193E-01    0.243E-02
DAV:   8    -0.501867427820E+02    0.59670E-05   -0.37703E-05  3088   0.114E-01    0.139E-02
DAV:   9    -0.501867400013E+02    0.27807E-05   -0.16863E-05  2216   0.625E-02    0.645E-03
DAV:  10    -0.501867401708E+02   -0.16953E-06   -0.74117E-06  2145   0.324E-02
  46 F= -.50186740E+02 E0= -.50168280E+02  d E =-.842962E-02
       N       E                     dE             d eps       ncg     rms          rms(c)
DAV:   1    -0.501067804111E+02    0.79960E-01   -0.40797E+01  2220   0.163E+01    0.927E-01
DAV:   2    -0.501938387140E+02   -0.87058E-01   -0.93118E-01  3233   0.481E+00    0.743E-01
DAV:   3    -0.501942274886E+02   -0.38877E-03   -0.11432E-01  3135   0.423E+00    0.584E-01
DAV:   4    -0.501912763188E+02    0.29512E-02   -0.11739E-01  3481   0.343E+00    0.443E-01
DAV:   5    -0.501893382519E+02    0.19381E-02   -0.49031E-02  3661   0.160E+00    0.267E-01
DAV:   6    -0.501884638873E+02    0.87436E-03   -0.91482E-03  3314   0.983E-01    0.780E-02
DAV:   7    -0.501885044881E+02   -0.40601E-04   -0.97524E-04  3324   0.395E-01    0.435E-02
DAV:   8    -0.501884876416E+02    0.16846E-04   -0.14291E-04  3248   0.212E-01    0.273E-02
DAV:   9    -0.501884781412E+02    0.95004E-05   -0.72118E-05  3129   0.137E-01    0.145E-02
DAV:  10    -0.501884775813E+02    0.55993E-06   -0.18778E-05  2100   0.735E-02    0.605E-03
DAV:  11    -0.501884781325E+02   -0.55120E-06   -0.95388E-06  2129   0.265E-02
  47 F= -.50188478E+02 E0= -.50170045E+02  d E =-.101676E-01
       N       E                     dE             d eps       ncg     rms          rms(c)
DAV:   1    -0.501820067572E+02    0.64708E-02   -0.43215E+00  2220   0.526E+00    0.278E-01
DAV:   2    -0.501895170147E+02   -0.75103E-02   -0.79365E-02  3096   0.129E+00    0.204E-01
DAV:   3    -0.501894078011E+02    0.10921E-03   -0.37707E-03  3065   0.739E-01    0.148E-01
DAV:   4    -0.501894827469E+02   -0.74946E-04   -0.37900E-03  3164   0.548E-01    0.106E-01
DAV:   5    -0.501898704140E+02   -0.38767E-03   -0.10723E-02  3618   0.103E+00    0.137E-01
DAV:   6    -0.501892724818E+02    0.59793E-03   -0.42938E-03  3195   0.751E-01    0.199E-02
DAV:   7    -0.501892802766E+02   -0.77948E-05   -0.12705E-04  3212   0.134E-01    0.145E-02
DAV:   8    -0.501892781684E+02    0.21082E-05   -0.16793E-05  2528   0.645E-02    0.806E-03
DAV:   9    -0.501892776063E+02    0.56208E-06   -0.63668E-06  2037   0.316E-02
  48 F= -.50189278E+02 E0= -.50170831E+02  d E =-.109671E-01
       N       E                     dE             d eps       ncg     rms          rms(c)
DAV:   1    -0.501911693297E+02   -0.18912E-02   -0.13875E-01  2220   0.105E+00    0.649E-02
DAV:   2    -0.501914113079E+02   -0.24198E-03   -0.30914E-03  3376   0.521E-01    0.769E-02
DAV:   3    -0.501913336780E+02    0.77630E-04   -0.77893E-04  3261   0.330E-01    0.361E-02
DAV:   4    -0.501913405867E+02   -0.69086E-05   -0.52934E-04  3326   0.248E-01    0.345E-02
DAV:   5    -0.501913149029E+02    0.25684E-04   -0.32191E-04  3010   0.163E-01    0.130E-02
DAV:   6    -0.501913110029E+02    0.39000E-05   -0.42739E-05  3120   0.717E-02    0.761E-03
DAV:   7    -0.501913105315E+02    0.47131E-06   -0.69252E-06  2010   0.561E-02
  49 F= -.50191311E+02 E0= -.50172786E+02  d E =-.203293E-02
       N       E                     dE             d eps       ncg     rms          rms(c)
DAV:   1    -0.501924927770E+02   -0.11818E-02   -0.81768E-01  2220   0.256E+00    0.164E-01
DAV:   2    -0.501940139476E+02   -0.15212E-02   -0.19359E-02  3322   0.136E+00    0.198E-01
DAV:   3    -0.501934753193E+02    0.53863E-03   -0.42782E-03  3257   0.842E-01    0.845E-02
DAV:   4    -0.501935573062E+02   -0.81987E-04   -0.31294E-03  3442   0.595E-01    0.860E-02
DAV:   5    -0.501933801766E+02    0.17713E-03   -0.21186E-03  3576   0.416E-01    0.329E-02
DAV:   6    -0.501933594913E+02    0.20685E-04   -0.25421E-04  3344   0.179E-01    0.200E-02
DAV:   7    -0.501933572941E+02    0.21972E-05   -0.45217E-05  3249   0.140E-01    0.653E-03
DAV:   8    -0.501933623342E+02   -0.50400E-05   -0.47686E-06  2128   0.218E-02    0.376E-03
DAV:   9    -0.501933705673E+02   -0.82331E-05   -0.19383E-06  1604   0.166E-02    0.238E-03
DAV:  10    -0.501933750988E+02   -0.45315E-05   -0.94570E-07  1536   0.145E-02    0.132E-03
DAV:  11    -0.501933791016E+02   -0.40028E-05   -0.54141E-07  1483   0.836E-03    0.942E-04
DAV:  12    -0.501933831332E+02   -0.40316E-05   -0.47181E-07  1523   0.594E-03    0.810E-04
DAV:  13    -0.501933879031E+02   -0.47699E-05   -0.51790E-07  1573   0.385E-03    0.476E-04
DAV:  14    -0.501933907600E+02   -0.28569E-05   -0.25055E-07  1491   0.403E-03    0.446E-04
DAV:  15    -0.501933928601E+02   -0.21002E-05   -0.21165E-07  1461   0.283E-03    0.223E-04
DAV:  16    -0.501933933840E+02   -0.52393E-06   -0.10232E-07  1472   0.150E-03
  50 F= -.50193393E+02 E0= -.50174687E+02  d E =-.411578E-02
       N       E                     dE             d eps       ncg     rms          rms(c)
DAV:   1    -0.501941445991E+02   -0.75174E-03   -0.20277E-02  2318   0.402E-01    0.188E-02
DAV:   2    -0.501941736160E+02   -0.29017E-04   -0.31393E-04  3328   0.171E-01    0.199E-02
DAV:   3    -0.501941703821E+02    0.32340E-05   -0.71982E-05  3002   0.133E-01    0.107E-02
DAV:   4    -0.501941699921E+02    0.38993E-06   -0.57671E-05  2058   0.647E-02    0.857E-03
DAV:   5    -0.501941682302E+02    0.17619E-05   -0.20892E-05  1686   0.395E-02    0.362E-03
DAV:   6    -0.501941683099E+02   -0.79744E-07   -0.21491E-06  1554   0.174E-02
  51 F= -.50194168E+02 E0= -.50175448E+02  d E =-.774926E-03
       N       E                     dE             d eps       ncg     rms          rms(c)
DAV:   1    -0.501959967505E+02   -0.18285E-02   -0.18255E-01  2220   0.121E+00    0.571E-02
DAV:   2    -0.501962574263E+02   -0.26068E-03   -0.28702E-03  3320   0.517E-01    0.606E-02
DAV:   3    -0.501962239828E+02    0.33444E-04   -0.59221E-04  3145   0.388E-01    0.311E-02
DAV:   4    -0.501962260639E+02   -0.20812E-05   -0.50864E-04  3241   0.199E-01    0.273E-02
DAV:   5    -0.501962063101E+02    0.19754E-04   -0.20221E-04  2616   0.127E-01    0.107E-02
DAV:   6    -0.501962063895E+02   -0.79337E-07   -0.20185E-05  3162   0.415E-02    0.383E-03
DAV:   7    -0.501962061465E+02    0.24293E-06   -0.16960E-06  1552   0.223E-02
  52 F= -.50196206E+02 E0= -.50177437E+02  d E =-.281276E-02
       N       E                     dE             d eps       ncg     rms          rms(c)
DAV:   1    -0.501981142455E+02   -0.19079E-02   -0.72946E-01  2220   0.241E+00    0.120E-01
DAV:   2    -0.501992726565E+02   -0.11584E-02   -0.12820E-02  3236   0.118E+00    0.139E-01
DAV:   3    -0.501990768353E+02    0.19582E-03   -0.30557E-03  3130   0.903E-01    0.634E-02
DAV:   4    -0.501990654042E+02    0.11431E-04   -0.22052E-03  3549   0.374E-01    0.542E-02
DAV:   5    -0.501989903784E+02    0.75026E-04   -0.69356E-04  3410   0.223E-01    0.218E-02
DAV:   6    -0.501989920018E+02   -0.16234E-05   -0.59928E-05  3224   0.101E-01    0.107E-02
DAV:   7    -0.501989906304E+02    0.13714E-05   -0.10733E-05  1994   0.647E-02    0.479E-03
DAV:   8    -0.501989907238E+02   -0.93423E-07   -0.37354E-06  2049   0.297E-02
  53 F= -.50198991E+02 E0= -.50180136E+02  d E =-.559734E-02
       N       E                     dE             d eps       ncg     rms          rms(c)
DAV:   1    -0.501954870193E+02    0.35036E-02   -0.29147E+00  2220   0.483E+00    0.249E-01
DAV:   2    -0.502007119869E+02   -0.52250E-02   -0.57765E-02  3269   0.252E+00    0.302E-01
DAV:   3    -0.501996843148E+02    0.10277E-02   -0.11816E-02  3201   0.189E+00    0.125E-01
DAV:   4    -0.501996957130E+02   -0.11398E-04   -0.86342E-03  3627   0.761E-01    0.112E-01
DAV:   5    -0.501993711990E+02    0.32451E-03   -0.30011E-03  3451   0.467E-01    0.454E-02
DAV:   6    -0.501993730989E+02   -0.18999E-05   -0.26033E-04  3280   0.178E-01    0.203E-02
DAV:   7    -0.501993689282E+02    0.41707E-05   -0.42449E-05  3217   0.113E-01    0.940E-03
DAV:   8    -0.501993693275E+02   -0.39928E-06   -0.12429E-05  2387   0.632E-02    0.657E-03
DAV:   9    -0.501993713697E+02   -0.20422E-05   -0.88845E-06  2584   0.341E-02    0.437E-03
DAV:  10    -0.501993725583E+02   -0.11886E-05   -0.63640E-07  1472   0.123E-02    0.281E-03
DAV:  11    -0.501993757201E+02   -0.31618E-05   -0.10996E-06  1486   0.117E-02    0.127E-03
DAV:  12    -0.501993769443E+02   -0.12243E-05   -0.45963E-07  1512   0.843E-03    0.102E-03
DAV:  13    -0.501993775290E+02   -0.58467E-06   -0.19509E-07  1349   0.441E-03
  54 F= -.50199378E+02 E0= -.50180346E+02  d E =-.598414E-02
       N       E                     dE             d eps       ncg     rms          rms(c)
DAV:   1    -0.501994570093E+02   -0.80065E-04   -0.57550E-01  2220   0.214E+00    0.955E-02
DAV:   2    -0.502001624196E+02   -0.70541E-03   -0.78394E-03  3320   0.738E-01    0.822E-02
DAV:   3    -0.502001691530E+02   -0.67334E-05   -0.19484E-03  3087   0.636E-01    0.632E-02
DAV:   4    -0.502001199004E+02    0.49253E-04   -0.16556E-03  3449   0.367E-01    0.432E-02
DAV:   5    -0.502000780194E+02    0.41881E-04   -0.49720E-04  3184   0.203E-01    0.194E-02
DAV:   6    -0.502000762597E+02    0.17597E-05   -0.52245E-05  3296   0.646E-02    0.589E-03
DAV:   7    -0.502000759825E+02    0.27724E-06   -0.44982E-06  2008   0.250E-02
  55 F= -.50200076E+02 E0= -.50181122E+02  d E =-.668260E-02
       N       E                     dE             d eps       ncg     rms          rms(c)
DAV:   1    -0.502001946962E+02   -0.11844E-03   -0.32303E-03  2405   0.161E-01    0.589E-03
DAV:   2    -0.502002007356E+02   -0.60394E-05   -0.60942E-05  3240   0.441E-02    0.448E-03
DAV:   3    -0.502002008864E+02   -0.15085E-06   -0.37766E-06  1572   0.181E-02
  56 F= -.50200201E+02 E0= -.50181236E+02  d E =-.124904E-03
       N       E                     dE             d eps       ncg     rms          rms(c)
DAV:   1    -0.502005239403E+02   -0.32320E-03   -0.29226E-02  2234   0.473E-01    0.193E-02
DAV:   2    -0.502005702525E+02   -0.46312E-04   -0.50177E-04  3299   0.123E-01    0.178E-02
DAV:   3    -0.502005689942E+02    0.12584E-05   -0.90042E-05  2629   0.676E-02    0.142E-02
DAV:   4    -0.502005672646E+02    0.17296E-05   -0.58991E-05  2008   0.835E-02    0.103E-02
DAV:   5    -0.502005660068E+02    0.12578E-05   -0.20021E-05  1991   0.640E-02    0.573E-03
DAV:   6    -0.502005660379E+02   -0.31112E-07   -0.39447E-06  1712   0.282E-02
  57 F= -.50200566E+02 E0= -.50181584E+02  d E =-.490055E-03
       N       E                     dE             d eps       ncg     rms          rms(c)
DAV:   1    -0.502010913535E+02   -0.52535E-03   -0.11697E-01  2220   0.945E-01    0.358E-02
DAV:   2    -0.502012563577E+02   -0.16500E-03   -0.17270E-03  3285   0.248E-01    0.290E-02
DAV:   3    -0.502012523726E+02    0.39851E-05   -0.63987E-05  2920   0.151E-01    0.194E-02
DAV:   4    -0.502012514484E+02    0.92422E-06   -0.28092E-05  2295   0.962E-02    0.129E-02
DAV:   5    -0.502012634388E+02   -0.11990E-04   -0.16105E-04  2105   0.113E-01    0.178E-02
DAV:   6    -0.502012501165E+02    0.13322E-04   -0.10519E-04  2201   0.100E-01    0.227E-03
DAV:   7    -0.502012505898E+02   -0.47326E-06   -0.43805E-06  2076   0.146E-02
  58 F= -.50201251E+02 E0= -.50182227E+02  d E =-.117461E-02
       N       E                     dE             d eps       ncg     rms          rms(c)
DAV:   1    -0.502018243289E+02   -0.57421E-03   -0.46760E-01  2220   0.189E+00    0.701E-02
DAV:   2    -0.502024544227E+02   -0.63009E-03   -0.65907E-03  3307   0.414E-01    0.494E-02
DAV:   3    -0.502024500428E+02    0.43799E-05   -0.19237E-04  3199   0.166E-01    0.356E-02
DAV:   4    -0.502024894601E+02   -0.39417E-04   -0.63779E-04  3347   0.276E-01    0.400E-02
DAV:   5    -0.502024561918E+02    0.33268E-04   -0.75506E-04  3333   0.250E-01    0.237E-02
DAV:   6    -0.502024411476E+02    0.15044E-04   -0.10387E-04  3140   0.134E-01    0.416E-03
DAV:   7    -0.502024419211E+02   -0.77349E-06   -0.89108E-06  2440   0.185E-02
  59 F= -.50202442E+02 E0= -.50183337E+02  d E =-.236594E-02
       N       E                     dE             d eps       ncg     rms          rms(c)
DAV:   1    -0.502015580191E+02    0.88313E-03   -0.18700E+00  2220   0.378E+00    0.141E-01
DAV:   2    -0.502041018600E+02   -0.25438E-02   -0.26659E-02  3299   0.853E-01    0.102E-01
DAV:   3    -0.502040800739E+02    0.21786E-04   -0.82520E-04  3204   0.436E-01    0.745E-02
DAV:   4    -0.502041912944E+02   -0.11122E-03   -0.21223E-03  3155   0.577E-01    0.765E-02
DAV:   5    -0.502041188100E+02    0.72484E-04   -0.30013E-03  3773   0.475E-01    0.495E-02
DAV:   6    -0.502040415990E+02    0.77211E-04   -0.63889E-04  3249   0.224E-01    0.100E-02
DAV:   7    -0.502040438311E+02   -0.22321E-05   -0.38036E-05  3217   0.497E-02    0.819E-03
DAV:   8    -0.502040430115E+02    0.81962E-06   -0.57834E-06  1962   0.398E-02
  60 F= -.50204043E+02 E0= -.50184780E+02  d E =-.396703E-02
       N       E                     dE             d eps       ncg     rms          rms(c)
DAV:   1    -0.501938968407E+02    0.10147E-01   -0.74740E+00  2220   0.756E+00    0.289E-01
DAV:   2    -0.502047131947E+02   -0.10816E-01   -0.11392E-01  3300   0.195E+00    0.238E-01
DAV:   3    -0.502044970269E+02    0.21617E-03   -0.57859E-03  2966   0.125E+00    0.169E-01
DAV:   4    -0.502047857925E+02   -0.28877E-03   -0.98764E-03  3179   0.113E+00    0.155E-01
DAV:   5    -0.502044458712E+02    0.33992E-03   -0.10582E-02  3803   0.853E-01    0.971E-02
DAV:   6    -0.502042434045E+02    0.20247E-03   -0.23793E-03  3368   0.362E-01    0.290E-02
DAV:   7    -0.502042410880E+02    0.23165E-05   -0.16881E-04  3328   0.123E-01    0.152E-02
DAV:   8    -0.502042376451E+02    0.34429E-05   -0.20921E-05  2792   0.490E-02    0.919E-03
DAV:   9    -0.502042365814E+02    0.10637E-05   -0.76875E-06  2224   0.508E-02    0.574E-03
DAV:  10    -0.502042362638E+02    0.31767E-06   -0.38231E-06  1873   0.357E-02
  61 F= -.50204236E+02 E0= -.50184676E+02  d E =-.416028E-02
       N       E                     dE             d eps       ncg     rms          rms(c)
DAV:   1    -0.502028864602E+02    0.13501E-02   -0.12851E+00  2220   0.313E+00    0.119E-01
DAV:   2    -0.502047207992E+02   -0.18343E-02   -0.19223E-02  3298   0.819E-01    0.103E-01
DAV:   3    -0.502046513989E+02    0.69400E-04   -0.72794E-04  2944   0.483E-01    0.651E-02
DAV:   4    -0.502046513318E+02    0.67055E-07   -0.37423E-04  3200   0.309E-01    0.467E-02
DAV:   5    -0.502047784669E+02   -0.12714E-03   -0.20657E-03  3810   0.413E-01    0.609E-02
DAV:   6    -0.502046315576E+02    0.14691E-03   -0.11692E-03  3775   0.290E-01    0.919E-03
DAV:   7    -0.502046327383E+02   -0.11807E-05   -0.25222E-05  3304   0.546E-02    0.640E-03
DAV:   8    -0.502046323337E+02    0.40457E-06   -0.24935E-06  1808   0.221E-02
  62 F= -.50204632E+02 E0= -.50185191E+02  d E =-.455635E-02
       N       E                     dE             d eps       ncg     rms          rms(c)
DAV:   1    -0.502048789701E+02   -0.24623E-03   -0.25903E-02  2234   0.433E-01    0.224E-02
DAV:   2    -0.502049260959E+02   -0.47126E-04   -0.54360E-04  3235   0.109E-01    0.213E-02
DAV:   3    -0.502049239005E+02    0.21954E-05   -0.19841E-04  3201   0.114E-01    0.178E-02
DAV:   4    -0.502049176007E+02    0.62998E-05   -0.75094E-05  2108   0.101E-01    0.107E-02
DAV:   5    -0.502049157309E+02    0.18698E-05   -0.12473E-05  2123   0.658E-02    0.603E-03
DAV:   6    -0.502049151536E+02    0.57722E-06   -0.26006E-06  1728   0.301E-02
  63 F= -.50204915E+02 E0= -.50185471E+02  d E =-.282820E-03
       N       E                     dE             d eps       ncg     rms          rms(c)
DAV:   1    -0.502049639057E+02   -0.48175E-04   -0.19570E-01  2220   0.119E+00    0.649E-02
DAV:   2    -0.502053205580E+02   -0.35665E-03   -0.41549E-03  3236   0.382E-01    0.652E-02
DAV:   3    -0.502052909828E+02    0.29575E-04   -0.13741E-03  3130   0.327E-01    0.479E-02
DAV:   4    -0.502052611279E+02    0.29855E-04   -0.72976E-04  2825   0.297E-01    0.359E-02
DAV:   5    -0.502052365957E+02    0.24532E-04   -0.18556E-04  2994   0.192E-01    0.155E-02
DAV:   6    -0.502052331589E+02    0.34368E-05   -0.22944E-05  3304   0.567E-02    0.537E-03
DAV:   7    -0.502052332314E+02   -0.72469E-07   -0.42787E-06  1929   0.381E-02
  64 F= -.50205233E+02 E0= -.50185784E+02  d E =-.600898E-03
       N       E                     dE             d eps       ncg     rms          rms(c)
DAV:   1    -0.502053733823E+02   -0.14022E-03   -0.84738E-03  2255   0.240E-01    0.118E-02
DAV:   2    -0.502053900555E+02   -0.16673E-04   -0.16501E-04  3328   0.668E-02    0.894E-03
DAV:   3    -0.502053915812E+02   -0.15257E-05   -0.22852E-05  1978   0.573E-02    0.773E-03
DAV:   4    -0.502053908865E+02    0.69471E-06   -0.25969E-05  1547   0.497E-02    0.573E-03
DAV:   5    -0.502053915659E+02   -0.67943E-06   -0.91590E-06  1527   0.302E-02
  65 F= -.50205392E+02 E0= -.50185923E+02  d E =-.158335E-03
       N       E                     dE             d eps       ncg     rms          rms(c)
DAV:   1    -0.502057118148E+02   -0.32093E-03   -0.76198E-02  2220   0.717E-01    0.341E-02
DAV:   2    -0.502058434395E+02   -0.13162E-03   -0.13682E-03  3312   0.194E-01    0.261E-02
DAV:   3    -0.502058414005E+02    0.20390E-05   -0.47910E-05  2708   0.124E-01    0.177E-02
DAV:   4    -0.502058413994E+02    0.11350E-08   -0.28028E-05  2209   0.102E-01    0.133E-02
DAV:   5    -0.502058516774E+02   -0.10278E-04   -0.14136E-04  2080   0.114E-01    0.164E-02
DAV:   6    -0.502058404404E+02    0.11237E-04   -0.83601E-05  1926   0.886E-02    0.192E-03
DAV:   7    -0.502058408320E+02   -0.39153E-06   -0.28223E-06  1746   0.113E-02
  66 F= -.50205841E+02 E0= -.50186349E+02  d E =-.607601E-03
       N       E                     dE             d eps       ncg     rms          rms(c)
DAV:   1    -0.502061326442E+02   -0.29220E-03   -0.30505E-01  2220   0.143E+00    0.674E-02
DAV:   2    -0.502066327322E+02   -0.50009E-03   -0.52236E-03  3181   0.324E-01    0.467E-02
DAV:   3    -0.502066289388E+02    0.37934E-05   -0.15235E-04  3272   0.150E-01    0.324E-02
DAV:   4    -0.502066611974E+02   -0.32259E-04   -0.41839E-04  3089   0.263E-01    0.354E-02
DAV:   5    -0.502066412439E+02    0.19953E-04   -0.65395E-04  2635   0.241E-01    0.229E-02
DAV:   6    -0.502066247803E+02    0.16464E-04   -0.12655E-04  2127   0.106E-01    0.421E-03
DAV:   7    -0.502066252342E+02   -0.45382E-06   -0.91217E-06  2568   0.186E-02
  67 F= -.50206625E+02 E0= -.50187080E+02  d E =-.139200E-02
       N       E                     dE             d eps       ncg     rms          rms(c)
DAV:   1    -0.502058710630E+02    0.75372E-03   -0.12197E+00  2220   0.286E+00    0.135E-01
DAV:   2    -0.502078692494E+02   -0.19982E-02   -0.20904E-02  3158   0.633E-01    0.935E-02
DAV:   3    -0.502078549179E+02    0.14331E-04   -0.63149E-04  3203   0.279E-01    0.661E-02
DAV:   4    -0.502079808544E+02   -0.12594E-03   -0.17505E-03  3114   0.502E-01    0.716E-02
[...]
DAV:   7    -0.502611084549E+02   -0.12244E-06   -0.61371E-06  2174   0.230E-02
 175 F= -.50261108E+02 E0= -.50240050E+02  d E =-.730193E-03
       N       E                     dE             d eps       ncg     rms          rms(c)
DAV:   1    -0.502579374855E+02    0.31708E-02   -0.32713E+00  2220   0.504E+00    0.123E-01
DAV:   2    -0.502619811926E+02   -0.40437E-02   -0.42022E-02  3272   0.126E+00    0.132E-01
DAV:   3    -0.502618129448E+02    0.16825E-03   -0.10712E-03  3168   0.590E-01    0.774E-02
DAV:   4    -0.502618615316E+02   -0.48587E-04   -0.16170E-03  3465   0.447E-01    0.766E-02
DAV:   5    -0.502617741857E+02    0.87346E-04   -0.22770E-03  3920   0.408E-01    0.493E-02
DAV:   6    -0.502617187124E+02    0.55473E-04   -0.59987E-04  3349   0.152E-01    0.161E-02
DAV:   7    -0.502617179035E+02    0.80894E-06   -0.46657E-05  3302   0.678E-02    0.806E-03
DAV:   8    -0.502617171291E+02    0.77431E-06   -0.36048E-06  1944   0.235E-02
 176 F= -.50261717E+02 E0= -.50240645E+02  d E =-.133887E-02
       N       E                     dE             d eps       ncg     rms          rms(c)
DAV:   1    -0.502437055335E+02    0.18012E-01   -0.13076E+01  2220   0.101E+01    0.262E-01
DAV:   2    -0.502633550028E+02   -0.19649E-01   -0.20391E-01  3287   0.295E+00    0.326E-01
DAV:   3    -0.502622268805E+02    0.11281E-02   -0.67529E-03  3196   0.150E+00    0.171E-01
DAV:   4    -0.502624075132E+02   -0.18063E-03   -0.77818E-03  3625   0.864E-01    0.169E-01
DAV:   5    -0.502618895163E+02    0.51800E-03   -0.73761E-03  3821   0.720E-01    0.103E-01
DAV:   6    -0.502617341521E+02    0.15536E-03   -0.18385E-03  3331   0.274E-01    0.404E-02
DAV:   7    -0.502617205656E+02    0.13587E-04   -0.20084E-04  3313   0.170E-01    0.159E-02
DAV:   8    -0.502617183319E+02    0.22337E-05   -0.19479E-05  2974   0.578E-02    0.111E-02
DAV:   9    -0.502617170935E+02    0.12383E-05   -0.12439E-05  2764   0.577E-02    0.735E-03
DAV:  10    -0.502617164797E+02    0.61380E-06   -0.40438E-06  2024   0.383E-02
 177 F= -.50261716E+02 E0= -.50240629E+02  d E =-.133822E-02
       N       E                     dE             d eps       ncg     rms          rms(c)
DAV:   1    -0.502579952612E+02    0.37218E-02   -0.32969E+00  2220   0.506E+00    0.157E-01
DAV:   2    -0.502626824137E+02   -0.46872E-02   -0.49374E-02  3379   0.187E+00    0.221E-01
DAV:   3    -0.502620528111E+02    0.62960E-03   -0.24428E-03  3145   0.103E+00    0.840E-02
DAV:   4    -0.502620918829E+02   -0.39072E-04   -0.16575E-03  3687   0.328E-01    0.779E-02
DAV:   5    -0.502619875676E+02    0.10432E-03   -0.19338E-03  3394   0.405E-01    0.454E-02
DAV:   6    -0.502619539160E+02    0.33652E-04   -0.49534E-04  3367   0.205E-01    0.206E-02
DAV:   7    -0.502619490250E+02    0.48910E-05   -0.47213E-05  3211   0.104E-01    0.770E-03
DAV:   8    -0.502619488681E+02    0.15690E-06   -0.12525E-05  2192   0.437E-02    0.707E-03
DAV:   9    -0.502619483277E+02    0.54046E-06   -0.43050E-06  1771   0.270E-02
 178 F= -.50261948E+02 E0= -.50240866E+02  d E =-.157007E-02
       N       E                     dE             d eps       ncg     rms          rms(c)
DAV:   1    -0.502618080413E+02    0.14083E-03   -0.30580E-01  2220   0.155E+00    0.739E-02
DAV:   2    -0.502622183738E+02   -0.41033E-03   -0.48436E-03  3243   0.447E-01    0.653E-02
DAV:   3    -0.502622266548E+02   -0.82810E-05   -0.21533E-03  3190   0.474E-01    0.558E-02
DAV:   4    -0.502621317993E+02    0.94855E-04   -0.10248E-03  3569   0.296E-01    0.252E-02
DAV:   5    -0.502621184216E+02    0.13378E-04   -0.16008E-04  3450   0.180E-01    0.177E-02
DAV:   6    -0.502621141133E+02    0.43083E-05   -0.28054E-05  3272   0.107E-01    0.690E-03
DAV:   7    -0.502621136674E+02    0.44593E-06   -0.74527E-06  1908   0.295E-02
 179 F= -.50262114E+02 E0= -.50241060E+02  d E =-.165340E-03
       N       E                     dE             d eps       ncg     rms          rms(c)
DAV:   1    -0.502621553949E+02   -0.41282E-04   -0.41432E-02  2311   0.573E-01    0.284E-02
DAV:   2    -0.502622193240E+02   -0.63929E-04   -0.74340E-04  3320   0.175E-01    0.270E-02
DAV:   3    -0.502622157074E+02    0.36166E-05   -0.21827E-04  3118   0.132E-01    0.190E-02
DAV:   4    -0.502622123151E+02    0.33923E-05   -0.16297E-04  2480   0.144E-01    0.165E-02
DAV:   5    -0.502622072131E+02    0.51020E-05   -0.52424E-05  2212   0.949E-02    0.541E-03
DAV:   6    -0.502622075890E+02   -0.37593E-06   -0.56319E-06  2144   0.310E-02
 180 F= -.50262208E+02 E0= -.50241145E+02  d E =-.259261E-03
       N       E                     dE             d eps       ncg     rms          rms(c)
DAV:   1    -0.502624864508E+02   -0.27924E-03   -0.19033E-01  2241   0.122E+00    0.352E-02
DAV:   2    -0.502627263337E+02   -0.23988E-03   -0.25196E-03  3313   0.443E-01    0.465E-02
DAV:   3    -0.502626985925E+02    0.27741E-04   -0.13977E-04  3097   0.246E-01    0.174E-02
DAV:   4    -0.502626970145E+02    0.15780E-05   -0.18553E-05  2832   0.294E-02    0.123E-02
DAV:   5    -0.502627057041E+02   -0.86896E-05   -0.99487E-05  2198   0.100E-01    0.162E-02
DAV:   6    -0.502626956551E+02    0.10049E-04   -0.98285E-05  2667   0.945E-02    0.407E-03
DAV:   7    -0.502626959463E+02   -0.29121E-06   -0.66656E-06  2240   0.219E-02
 181 F= -.50262696E+02 E0= -.50241617E+02  d E =-.488357E-03
       N       E                     dE             d eps       ncg     rms          rms(c)
DAV:   1    -0.502618070502E+02    0.88860E-03   -0.17141E+00  2220   0.368E+00    0.113E-01
DAV:   2    -0.502640899369E+02   -0.22829E-02   -0.24056E-02  3285   0.139E+00    0.156E-01
DAV:   3    -0.502637747230E+02    0.31521E-03   -0.15259E-03  3129   0.804E-01    0.554E-02
DAV:   4    -0.502637825139E+02   -0.77909E-05   -0.65224E-04  3498   0.213E-01    0.483E-02
DAV:   5    -0.502637571979E+02    0.25316E-04   -0.72338E-04  3442   0.241E-01    0.357E-02
DAV:   6    -0.502637404001E+02    0.16798E-04   -0.27043E-04  3488   0.158E-01    0.171E-02
DAV:   7    -0.502637370518E+02    0.33483E-05   -0.31360E-05  3192   0.868E-02    0.637E-03
DAV:   8    -0.502637369315E+02    0.12037E-06   -0.78371E-06  2065   0.346E-02
 182 F= -.50263737E+02 E0= -.50242624E+02  d E =-.152934E-02
       N       E                     dE             d eps       ncg     rms          rms(c)
DAV:   1    -0.502554224546E+02    0.83146E-02   -0.68524E+00  2220   0.736E+00    0.249E-01
DAV:   2    -0.502659673576E+02   -0.10545E-01   -0.11159E-01  3348   0.316E+00    0.363E-01
DAV:   3    -0.502642079772E+02    0.17594E-02   -0.76832E-03  3155   0.187E+00    0.121E-01
DAV:   4    -0.502642246495E+02   -0.16672E-04   -0.29893E-03  3467   0.453E-01    0.104E-01
DAV:   5    -0.502640946818E+02    0.12997E-03   -0.26953E-03  3300   0.478E-01    0.736E-02
DAV:   6    -0.502640233090E+02    0.71373E-04   -0.10712E-03  3408   0.288E-01    0.406E-02
DAV:   7    -0.502640021470E+02    0.21162E-04   -0.15638E-04  3192   0.175E-01    0.145E-02
DAV:   8    -0.502640031638E+02   -0.10168E-05   -0.48871E-05  3025   0.898E-02    0.116E-02
DAV:   9    -0.502640021756E+02    0.98825E-06   -0.96209E-06  2328   0.412E-02
 183 F= -.50264002E+02 E0= -.50242830E+02  d E =-.179459E-02
       N       E                     dE             d eps       ncg     rms          rms(c)
DAV:   1    -0.502631568267E+02    0.84634E-03   -0.97738E-01  2220   0.278E+00    0.639E-02
DAV:   2    -0.502642681605E+02   -0.11113E-02   -0.11574E-02  3291   0.710E-01    0.603E-02
DAV:   3    -0.502642395664E+02    0.28594E-04   -0.38681E-04  3035   0.307E-01    0.386E-02
DAV:   4    -0.502642380620E+02    0.15044E-05   -0.28598E-04  3425   0.185E-01    0.344E-02
DAV:   5    -0.502642352553E+02    0.28068E-05   -0.45059E-04  3514   0.196E-01    0.277E-02
DAV:   6    -0.502642153875E+02    0.19868E-04   -0.16763E-04  3870   0.140E-01    0.826E-03
DAV:   7    -0.502642160242E+02   -0.63668E-06   -0.13792E-05  3186   0.526E-02    0.470E-03
DAV:   8    -0.502642157728E+02    0.25134E-06   -0.16070E-06  1460   0.186E-02
 184 F= -.50264216E+02 E0= -.50243069E+02  d E =-.200818E-02
       N       E                     dE             d eps       ncg     rms          rms(c)
DAV:   1    -0.502640854607E+02    0.13056E-03   -0.20508E-01  2234   0.127E+00    0.734E-02
DAV:   2    -0.502643388415E+02   -0.25338E-03   -0.32020E-03  3243   0.313E-01    0.539E-02
DAV:   3    -0.502643923627E+02   -0.53521E-04   -0.20318E-03  3382   0.374E-01    0.567E-02
DAV:   4    -0.502642902287E+02    0.10213E-03   -0.13611E-03  2999   0.394E-01    0.319E-02
DAV:   5    -0.502642664682E+02    0.23760E-04   -0.13578E-04  3179   0.206E-01    0.122E-02
DAV:   6    -0.502642648892E+02    0.15790E-05   -0.17919E-05  3236   0.603E-02    0.683E-03
DAV:   7    -0.502642650875E+02   -0.19828E-06   -0.51865E-06  1842   0.413E-02
 185 F= -.50264265E+02 E0= -.50243082E+02  d E =-.493147E-04
       N       E                     dE             d eps       ncg     rms          rms(c)
DAV:   1    -0.502643251531E+02   -0.60264E-04   -0.44591E-02  2339   0.592E-01    0.347E-02
DAV:   2    -0.502643948163E+02   -0.69663E-04   -0.81201E-04  3324   0.195E-01    0.297E-02
DAV:   3    -0.502643979763E+02   -0.31599E-05   -0.45103E-04  3191   0.200E-01    0.246E-02
DAV:   4    -0.502643847610E+02    0.13215E-04   -0.27512E-04  2736   0.182E-01    0.174E-02
DAV:   5    -0.502643791487E+02    0.56123E-05   -0.41434E-05  2391   0.102E-01    0.538E-03
DAV:   6    -0.502643797698E+02   -0.62110E-06   -0.36683E-06  2112   0.193E-02
 186 F= -.50264380E+02 E0= -.50243215E+02  d E =-.163997E-03
       N       E                     dE             d eps       ncg     rms          rms(c)
DAV:   1    -0.502645972107E+02   -0.21806E-03   -0.53776E-02  2269   0.652E-01    0.200E-02
DAV:   2    -0.502646601775E+02   -0.62967E-04   -0.68638E-04  3344   0.212E-01    0.243E-02
DAV:   3    -0.502646543317E+02    0.58458E-05   -0.99967E-05  3174   0.120E-01    0.124E-02
DAV:   4    -0.502646536737E+02    0.65798E-06   -0.54832E-05  2152   0.757E-02    0.113E-02
DAV:   5    -0.502646516379E+02    0.20358E-05   -0.19423E-05  1848   0.511E-02    0.577E-03
DAV:   6    -0.502646518477E+02   -0.20978E-06   -0.61051E-06  2690   0.162E-02
 187 F= -.50264652E+02 E0= -.50243491E+02  d E =-.272078E-03
       N       E                     dE             d eps       ncg     rms          rms(c)
DAV:   1    -0.502648249742E+02   -0.17334E-03   -0.48469E-01  2241   0.195E+00    0.565E-02
DAV:   2    -0.502653334345E+02   -0.50846E-03   -0.54532E-03  3237   0.531E-01    0.574E-02
DAV:   3    -0.502653098557E+02    0.23579E-04   -0.51787E-04  3158   0.291E-01    0.343E-02
DAV:   4    -0.502653113077E+02   -0.14520E-05   -0.40161E-04  3472   0.191E-01    0.323E-02
DAV:   5    -0.502652956248E+02    0.15683E-04   -0.22810E-04  3292   0.170E-01    0.170E-02
DAV:   6    -0.502652941338E+02    0.14910E-05   -0.37606E-05  3440   0.635E-02    0.518E-03
DAV:   7    -0.502652940858E+02    0.48021E-07   -0.39580E-06  1926   0.324E-02
 188 F= -.50265294E+02 E0= -.50244148E+02  d E =-.914316E-03
       N       E                     dE             d eps       ncg     rms          rms(c)
DAV:   1    -0.502636977550E+02    0.15964E-02   -0.19387E+00  2220   0.391E+00    0.107E-01
DAV:   2    -0.502657053397E+02   -0.20076E-02   -0.21376E-02  3228   0.904E-01    0.964E-02
DAV:   3    -0.502656875840E+02    0.17756E-04   -0.20100E-03  2943   0.435E-01    0.710E-02
DAV:   4    -0.502656636597E+02    0.23924E-04   -0.16945E-03  3376   0.397E-01    0.623E-02
DAV:   5    -0.502656138216E+02    0.49838E-04   -0.77483E-04  3171   0.355E-01    0.357E-02
DAV:   6    -0.502656032316E+02    0.10590E-04   -0.14504E-04  3456   0.184E-01    0.117E-02
DAV:   7    -0.502656033122E+02   -0.80647E-07   -0.24433E-05  3158   0.845E-02    0.705E-03
DAV:   8    -0.502656031996E+02    0.11266E-06   -0.44736E-06  1768   0.347E-02
 189 F= -.50265603E+02 E0= -.50244486E+02  d E =-.122343E-02
       N       E                     dE             d eps       ncg     rms          rms(c)
DAV:   1    -0.502655668086E+02    0.36504E-04   -0.77793E-02  2255   0.784E-01    0.238E-02
DAV:   2    -0.502656560623E+02   -0.89254E-04   -0.95952E-04  3336   0.234E-01    0.282E-02
DAV:   3    -0.502656478544E+02    0.82080E-05   -0.11278E-04  3136   0.118E-01    0.146E-02
DAV:   4    -0.502656476609E+02    0.19345E-06   -0.69765E-05  2263   0.874E-02    0.134E-02
DAV:   5    -0.502656451633E+02    0.24976E-05   -0.34913E-05  2020   0.658E-02    0.688E-03
DAV:   6    -0.502656458198E+02   -0.65650E-06   -0.96302E-06  2928   0.311E-02
 190 F= -.50265646E+02 E0= -.50244527E+02  d E =-.126605E-02
       N       E                     dE             d eps       ncg     rms          rms(c)
DAV:   1    -0.502654075482E+02    0.23762E-03   -0.30931E-01  2220   0.156E+00    0.507E-02
DAV:   2    -0.502657365520E+02   -0.32900E-03   -0.36243E-03  3300   0.376E-01    0.422E-02
DAV:   3    -0.502657383716E+02   -0.18197E-05   -0.51579E-04  3110   0.261E-01    0.363E-02
DAV:   4    -0.502657214187E+02    0.16953E-04   -0.49420E-04  3380   0.214E-01    0.257E-02
DAV:   5    -0.502657077425E+02    0.13676E-04   -0.18672E-04  3280   0.169E-01    0.159E-02
DAV:   6    -0.502657040044E+02    0.37381E-05   -0.25974E-05  3392   0.695E-02    0.374E-03
DAV:   7    -0.502657041012E+02   -0.96770E-07   -0.32561E-06  1610   0.134E-02
 191 F= -.50265704E+02 E0= -.50244566E+02  d E =-.582814E-04
       N       E                     dE             d eps       ncg     rms          rms(c)
DAV:   1    -0.502656866214E+02    0.17383E-04   -0.45270E-02  2339   0.597E-01    0.193E-02
DAV:   2    -0.502657395229E+02   -0.52902E-04   -0.55907E-04  3328   0.167E-01    0.189E-02
DAV:   3    -0.502657390564E+02    0.46648E-06   -0.11327E-04  3004   0.134E-01    0.142E-02
DAV:   4    -0.502657352737E+02    0.37827E-05   -0.65990E-05  1825   0.643E-02    0.850E-03
DAV:   5    -0.502657345087E+02    0.76499E-06   -0.23837E-05  1951   0.366E-02    0.563E-03
DAV:   6    -0.502657342826E+02    0.22605E-06   -0.50248E-06  2224   0.238E-02
 192 F= -.50265734E+02 E0= -.50244603E+02  d E =-.884628E-04
       N       E                     dE             d eps       ncg     rms          rms(c)
DAV:   1    -0.502658171984E+02   -0.82690E-04   -0.13249E-01  2220   0.101E+00    0.201E-02
DAV:   2    -0.502659556760E+02   -0.13848E-03   -0.14267E-03  3336   0.254E-01    0.254E-02
DAV:   3    -0.502659496270E+02    0.60490E-05   -0.77125E-05  3181   0.114E-01    0.155E-02
DAV:   4    -0.502659487812E+02    0.84584E-06   -0.47997E-05  2006   0.679E-02    0.141E-02
DAV:   5    -0.502659458272E+02    0.29540E-05   -0.31098E-05  2092   0.576E-02    0.964E-03
DAV:   6    -0.502659449775E+02    0.84963E-06   -0.15480E-05  3352   0.338E-02    0.266E-03
DAV:   7    -0.502659449205E+02    0.57044E-07   -0.63806E-07  1313   0.863E-03
 193 F= -.50265945E+02 E0= -.50244816E+02  d E =-.210638E-03
       N       E                     dE             d eps       ncg     rms          rms(c)
DAV:   1    -0.502652821025E+02    0.66288E-03   -0.11929E+00  2220   0.303E+00    0.594E-02
DAV:   2    -0.502665060012E+02   -0.12239E-02   -0.12560E-02  3293   0.706E-01    0.684E-02
DAV:   3    -0.502664701207E+02    0.35881E-04   -0.59869E-04  3157   0.338E-01    0.448E-02
DAV:   4    -0.502664623270E+02    0.77937E-05   -0.44918E-04  3394   0.209E-01    0.409E-02
DAV:   5    -0.502664397693E+02    0.22558E-04   -0.27775E-04  3486   0.130E-01    0.265E-02
DAV:   6    -0.502664306831E+02    0.90862E-05   -0.83338E-05  3376   0.814E-02    0.818E-03
DAV:   7    -0.502664306840E+02   -0.93132E-09   -0.87228E-06  2264   0.385E-02
 194 F= -.50266431E+02 E0= -.50245310E+02  d E =-.696401E-03
       N       E                     dE             d eps       ncg     rms          rms(c)
DAV:   1    -0.502617361752E+02    0.46945E-02   -0.47704E+00  2220   0.606E+00    0.131E-01
DAV:   2    -0.502671040956E+02   -0.53679E-02   -0.55503E-02  3293   0.170E+00    0.178E-01
DAV:   3    -0.502667949599E+02    0.30914E-03   -0.31920E-03  3132   0.906E-01    0.951E-02
DAV:   4    -0.502667697406E+02    0.25219E-04   -0.19601E-03  3498   0.409E-01    0.879E-02
DAV:   5    -0.502666554734E+02    0.11427E-03   -0.99232E-04  3596   0.230E-01    0.537E-02
DAV:   6    -0.502666241469E+02    0.31326E-04   -0.35224E-04  3384   0.133E-01    0.236E-02
DAV:   7    -0.502666211640E+02    0.29830E-05   -0.67265E-05  3261   0.104E-01    0.915E-03
DAV:   8    -0.502666204339E+02    0.73004E-06   -0.56184E-06  2218   0.402E-02
 195 F= -.50266620E+02 E0= -.50245535E+02  d E =-.886151E-03
       N       E                     dE             d eps       ncg     rms          rms(c)
DAV:   1    -0.502661152503E+02    0.50591E-03   -0.59642E-01  2220   0.214E+00    0.425E-02
DAV:   2    -0.502667408673E+02   -0.62562E-03   -0.64692E-03  3329   0.541E-01    0.542E-02
DAV:   3    -0.502667136510E+02    0.27216E-04   -0.35680E-04  3086   0.233E-01    0.321E-02
DAV:   4    -0.502667105503E+02    0.31008E-05   -0.21737E-04  3373   0.142E-01    0.296E-02
DAV:   5    -0.502666976317E+02    0.12919E-04   -0.13750E-04  3401   0.130E-01    0.198E-02
DAV:   6    -0.502666922919E+02    0.53398E-05   -0.40638E-05  3408   0.704E-02    0.512E-03
DAV:   7    -0.502666920508E+02    0.24101E-06   -0.49415E-06  2087   0.257E-02
 196 F= -.50266692E+02 E0= -.50245594E+02  d E =-.957768E-03
       N       E                     dE             d eps       ncg     rms          rms(c)
DAV:   1    -0.502667340476E+02   -0.41756E-04   -0.46373E-02  2248   0.601E-01    0.146E-02
DAV:   2    -0.502667833102E+02   -0.49263E-04   -0.52266E-04  3292   0.167E-01    0.166E-02
DAV:   3    -0.502667803023E+02    0.30079E-05   -0.20372E-05  2700   0.848E-02    0.925E-03
DAV:   4    -0.502667802275E+02    0.74797E-07   -0.14956E-05  1769   0.411E-02    0.811E-03
DAV:   5    -0.502667797675E+02    0.45999E-06   -0.29453E-05  1578   0.481E-02    0.616E-03
DAV:   6    -0.502667789465E+02    0.82099E-06   -0.13880E-05  2345   0.248E-02    0.222E-03
DAV:   7    -0.502667789844E+02   -0.37893E-07   -0.11081E-06  1448   0.109E-02
 197 F= -.50266779E+02 E0= -.50245677E+02  d E =-.869335E-04
       N       E                     dE             d eps       ncg     rms          rms(c)
DAV:   1    -0.502666998146E+02    0.79132E-04   -0.17146E-01  2248   0.115E+00    0.277E-02
DAV:   2    -0.502668770338E+02   -0.17722E-03   -0.18659E-03  3278   0.279E-01    0.281E-02
DAV:   3    -0.502668686288E+02    0.84050E-05   -0.92700E-05  3031   0.111E-01    0.177E-02
DAV:   4    -0.502668683595E+02    0.26933E-06   -0.68354E-05  2307   0.741E-02    0.150E-02
DAV:   5    -0.502668654008E+02    0.29586E-05   -0.83889E-05  2501   0.104E-01    0.115E-02
DAV:   6    -0.502668630321E+02    0.23687E-05   -0.26507E-05  3280   0.475E-02    0.353E-03
DAV:   7    -0.502668630149E+02    0.17171E-07   -0.10206E-06  1400   0.190E-02
 198 F= -.50266863E+02 E0= -.50245754E+02  d E =-.170964E-03
       N       E                     dE             d eps       ncg     rms          rms(c)
DAV:   1    -0.502668612724E+02    0.17597E-05   -0.32757E-03  2360   0.160E-01    0.416E-03
DAV:   2    -0.502668657672E+02   -0.44949E-05   -0.46061E-05  3300   0.487E-02    0.454E-03
DAV:   3    -0.502668656628E+02    0.10440E-06   -0.22337E-06  1400   0.241E-02
 199 F= -.50266866E+02 E0= -.50245756E+02  d E =-.173612E-03
       N       E                     dE             d eps       ncg     rms          rms(c)
DAV:   1    -0.502668982745E+02   -0.32507E-04   -0.19401E-03  2304   0.123E-01    0.385E-03
DAV:   2    -0.502669026223E+02   -0.43479E-05   -0.45903E-05  3398   0.418E-02    0.703E-03
DAV:   3    -0.502669011595E+02    0.14628E-05   -0.14584E-05  1540   0.311E-02    0.381E-03
DAV:   4    -0.502669011379E+02    0.21624E-07   -0.18202E-06  1339   0.204E-02
 200 F= -.50266901E+02 E0= -.50245792E+02  d E =-.354751E-04
