PROCAR lm decomposed
# of k-points:   10         # of bands:  111         # of ions:   18

 k-point     1 :    0.00000000 0.00000000 0.00000000     weight = 0.06250000

band     1 # energy  -24.79008477 # occ.  2.00000000
 
ion      s     py     pz     px    dxy    dyz    dz2    dxz  x2-y2    tot
    1  0.000  0.000  0.000  0.000  0.000  0.000  0.000  0.000  0.000  0.000
    2  0.000  0.000  0.000  0.000  0.000  0.000  0.000  0.000  0.000  0.000
    3  0.000  0.000  0.000  0.000  0.000  0.000  0.000  0.000  0.000  0.000
    4  0.000  0.000  0.000  0.000  0.000  0.000  0.000  0.000  0.000  0.000
    5  0.000  0.000  0.000  0.000  0.000  0.000  0.000  0.000  0.000  0.000
    6  0.000  0.000  0.000  0.000  0.000  0.000  0.000  0.000  0.000  0.000
    7  0.000  0.000  0.000  0.000  0.000  0.000  0.000  0.000  0.000  0.000
    8  0.000  0.000  0.000  0.000  0.000  0.000  0.000  0.000  0.000  0.000
    9  0.000  0.000  0.000  0.000  0.000  0.000  0.000  0.000  0.000  0.000
   10  0.000  0.000  0.000  0.000  0.000  0.000  0.000  0.000  0.000  0.000
   11  0.000  0.000  0.000  0.000  0.000  0.000  0.000  0.000  0.000  0.000
   12  0.000  0.000  0.000  0.000  0.000  0.000  0.000  0.000  0.000  0.000
   13  0.000  0.000  0.000  0.000  0.000  0.000  0.000  0.000  0.000  0.000
   14  0.000  0.000  0.000  0.000  0.000  0.000  0.000  0.000  0.000  0.000
   15  0.000  0.000  0.000  0.000  0.000  0.000  0.000  0.000  0.000  0.000
   16  0.000  0.000  0.000  0.000  0.000  0.000  0.000  0.000  0.000  0.000
   17  0.159  0.000  0.115  0.000  0.000  0.000  0.000  0.000  0.000  0.274
   18  0.646  0.000  0.093  0.000  0.000  0.000  0.000  0.000  0.000  0.740
tot    0.805  0.000  0.209  0.000  0.000  0.000  0.000  0.000  0.000  1.014
 
band     2 # energy  -10.37884694 # occ.  2.00000000
 
ion      s     py     pz     px    dxy    dyz    dz2    dxz  x2-y2    tot
    1  0.000  0.000  0.000  0.000  0.000  0.000  0.000  0.000  0.000  0.000
    2  0.000  0.000  0.000  0.000  0.000  0.000  0.000  0.000  0.000  0.000
    3  0.000  0.000  0.000  0.000  0.000  0.000  0.000  0.000  0.000  0.000
    4  0.000  0.000  0.000  0.000  0.000  0.000  0.000  0.000  0.000  0.000
    5  0.000  0.000  0.000  0.000  0.000  0.000  0.000  0.000  0.000  0.000
    6  0.000  0.000  0.000  0.000  0.000  0.000  0.000  0.000  0.000  0.000
    7  0.000  0.000  0.000  0.000  0.000  0.000  0.000  0.000  0.000  0.000
    8  0.000  0.000  0.000  0.000  0.000  0.000  0.000  0.000  0.000  0.000
    9  0.000  0.000  0.000  0.000  0.000  0.000  0.000  0.000  0.000  0.000
   10  0.000  0.000  0.000  0.000  0.000  0.000  0.000  0.000  0.000  0.000
   11  0.000  0.000  0.000  0.000  0.000  0.000  0.000  0.000  0.000  0.001
   12  0.000  0.000  0.000  0.000  0.000  0.000  0.000  0.000  0.000  0.000
   13  0.033  0.000  0.016  0.000  0.000  0.000  0.022  0.000  0.000  0.071
   14  0.003  0.000  0.000  0.000  0.000  0.000  0.000  0.000  0.001  0.004
   15  0.002  0.000  0.000  0.000  0.001  0.000  0.000  0.000  0.000  0.004
   16  0.002  0.000  0.000  0.000  0.001  0.000  0.000  0.000  0.000  0.003
   17  0.274  0.000  0.003  0.000  0.000  0.000  0.000  0.000  0.000  0.277
   18  0.144  0.000  0.235  0.000  0.000  0.000  0.000  0.000  0.000  0.379
tot    0.459  0.000  0.254  0.000  0.001  0.000  0.023  0.000  0.002  0.739
 
band     3 # energy   -8.06739336 # occ.  2.00000000
 
ion      s     py     pz     px    dxy    dyz    dz2    dxz  x2-y2    tot
    1  0.006  0.000  0.001  0.000  0.000  0.000  0.000  0.000  0.000  0.007
    2  0.009  0.000  0.001  0.000  0.000  0.000  0.000  0.000  0.000  0.009
    3  0.009  0.000  0.001  0.000  0.000  0.000  0.000  0.000  0.000  0.009
    4  0.009  0.000  0.001  0.000  0.000  0.000  0.000  0.000  0.000  0.010
    5  0.021  0.000  0.000  0.000  0.000  0.000  0.000  0.000  0.000  0.022
    6  0.027  0.000  0.000  0.000  0.000  0.000  0.000  0.000  0.000  0.028
    7  0.027  0.000  0.000  0.000  0.000  0.000  0.000  0.000  0.000  0.028
    8  0.028  0.000  0.000  0.000  0.000  0.000  0.000  0.000  0.000  0.029
    9  0.025  0.000  0.000  0.000  0.000  0.000  0.000  0.000  0.000  0.025
   10  0.028  0.000  0.000  0.000  0.000  0.000  0.000  0.000  0.000  0.029
   11  0.032  0.000  0.000  0.000  0.000  0.000  0.000  0.000  0.000  0.032
   12  0.032  0.000  0.000  0.000  0.000  0.000  0.000  0.000  0.000  0.033
   13  0.058  0.000  0.003  0.000  0.000  0.000  0.014  0.000  0.000  0.076
   14  0.018  0.000  0.000  0.000  0.000  0.000  0.002  0.000  0.002  0.023
   15  0.020  0.000  0.000  0.000  0.001  0.000  0.002  0.000  0.000  0.024
   16  0.020  0.000  0.000  0.000  0.001  0.000  0.001  0.000  0.000  0.024
   17  0.002  0.000  0.083  0.000  0.000  0.000  0.000  0.000  0.000  0.085
   18  0.014  0.000  0.139  0.000  0.000  0.000  0.000  0.000  0.000  0.154
tot    0.386  0.000  0.230  0.000  0.002  0.000  0.021  0.001  0.003  0.643
 
band     4 # energy   -7.73521832 # occ.  2.00000000
 
ion      s     py     pz     px    dxy    dyz    dz2    dxz  x2-y2    tot
    1  0.017  0.000  0.001  0.000  0.000  0.000  0.000  0.000  0.000  0.018
    2  0.022  0.000  0.002  0.000  0.000  0.000  0.001  0.000  0.000  0.025
    3  0.022  0.000  0.002  0.000  0.000  0.000  0.001  0.000  0.000  0.024
    4  0.022  0.000  0.002  0.000  0.000  0.000  0.000  0.000  0.000  0.024
    5  0.036  0.000  0.000  0.000  0.000  0.000  0.000  0.000  0.000  0.036
    6  0.046  0.000  0.000  0.000  0.000  0.000  0.003  0.000  0.000  0.049
    7  0.046  0.000  0.000  0.000  0.000  0.000  0.003  0.000  0.000  0.049
    8  0.044  0.000  0.000  0.000  0.000  0.000  0.003  0.000  0.000  0.048
    9  0.008  0.000  0.001  0.000  0.000  0.000  0.000  0.000  0.000  0.009
   10  0.012  0.000  0.001  0.000  0.000  0.000  0.000  0.000  0.000  0.013
   11  0.006  0.000  0.002  0.000  0.000  0.000  0.000  0.001  0.000  0.010
   12  0.008  0.000  0.002  0.000  0.000  0.000  0.000  0.001  0.000  0.012
   13  0.035  0.000  0.012  0.000  0.000  0.000  0.023  0.000  0.000  0.070
   14  0.003  0.000  0.000  0.000  0.000  0.000  0.004  0.000  0.005  0.011
   15  0.002  0.000  0.000  0.000  0.003  0.000  0.003  0.000  0.001  0.010
   16  0.001  0.000  0.001  0.000  0.002  0.000  0.003  0.000  0.001  0.008
   17  0.009  0.000  0.098  0.000  0.000  0.000  0.000  0.000  0.000  0.107
   18  0.010  0.000  0.130  0.000  0.000  0.000  0.000  0.000  0.000  0.140
tot    0.348  0.000  0.255  0.000  0.006  0.001  0.044  0.002  0.007  0.663
 
band     5 # energy   -7.47772262 # occ.  2.00000000
 
ion      s     py     pz     px    dxy    dyz    dz2    dxz  x2-y2    tot
    1  0.000  0.000  0.000  0.000  0.000  0.000  0.000  0.000  0.000  0.000
    2  0.000  0.000  0.000  0.000  0.000  0.000  0.000  0.000  0.000  0.000
    3  0.000  0.000  0.000  0.000  0.000  0.000  0.000  0.000  0.000  0.000
    4  0.000  0.000  0.000  0.000  0.000  0.000  0.000  0.000  0.000  0.000
    5  0.000  0.000  0.000  0.000  0.000  0.000  0.000  0.000  0.000  0.000
    6  0.000  0.000  0.000  0.000  0.000  0.000  0.000  0.000  0.000  0.000
    7  0.000  0.000  0.000  0.000  0.000  0.000  0.000  0.000  0.000  0.000
    8  0.000  0.000  0.000  0.000  0.000  0.000  0.000  0.000  0.000  0.000
    9  0.000  0.000  0.000  0.000  0.000  0.000  0.000  0.000  0.000  0.000
   10  0.000  0.000  0.000  0.000  0.000  0.000  0.000  0.000  0.000  0.000
   11  0.000  0.000  0.000  0.000  0.000  0.000  0.000  0.000  0.000  0.000
   12  0.000  0.000  0.000  0.000  0.000  0.000  0.000  0.000  0.000  0.000
   13  0.000  0.000  0.000  0.001  0.000  0.000  0.000  0.012  0.000  0.014
   14  0.000  0.000  0.000  0.001  0.000  0.000  0.000  0.006  0.000  0.007
   15  0.000  0.000  0.000  0.000  0.000  0.002  0.000  0.000  0.000  0.003
   16  0.000  0.000  0.000  0.000  0.000  0.001  0.000  0.000  0.000  0.001
   17  0.000  0.005  0.000  0.168  0.000  0.000  0.000  0.000  0.000  0.172
   18  0.000  0.013  0.000  0.472  0.000  0.000  0.000  0.000  0.000  0.485
tot    0.000  0.018  0.000  0.641  0.000  0.004  0.001  0.018  0.000  0.682
 
band     6 # energy   -7.46399416 # occ.  2.00000000
 
ion      s     py     pz     px    dxy    dyz    dz2    dxz  x2-y2    tot
    1  0.000  0.000  0.000  0.000  0.000  0.000  0.000  0.000  0.000  0.000
    2  0.000  0.000  0.000  0.000  0.000  0.000  0.000  0.000  0.000  0.000
    3  0.000  0.000  0.000  0.000  0.000  0.000  0.000  0.000  0.000  0.000
    4  0.000  0.000  0.000  0.000  0.000  0.000  0.000  0.000  0.000  0.000
    5  0.000  0.000  0.000  0.000  0.000  0.000  0.000  0.000  0.000  0.000
    6  0.000  0.000  0.000  0.000  0.000  0.000  0.000  0.000  0.000  0.000
    7  0.000  0.000  0.000  0.000  0.000  0.000  0.000  0.000  0.000  0.000
    8  0.000  0.000  0.000  0.000  0.000  0.000  0.000  0.000  0.000  0.000
    9  0.000  0.000  0.000  0.000  0.000  0.000  0.000  0.000  0.000  0.000
   10  0.000  0.000  0.000  0.000  0.000  0.000  0.000  0.000  0.000  0.000
   11  0.000  0.000  0.000  0.000  0.000  0.000  0.000  0.000  0.000  0.000
   12  0.000  0.000  0.000  0.000  0.000  0.000  0.000  0.000  0.000  0.000
   13  0.000  0.001  0.000  0.000  0.000  0.012  0.000  0.000  0.000  0.014
   14  0.000  0.000  0.000  0.000  0.000  0.000  0.000  0.000  0.000  0.001
   15  0.000  0.000  0.000  0.000  0.000  0.002  0.000  0.001  0.000  0.004
   16  0.000  0.000  0.000  0.000  0.000  0.003  0.000  0.001  0.000  0.005
   17  0.000  0.167  0.000  0.005  0.000  0.000  0.000  0.000  0.000  0.172
   18  0.000  0.475  0.000  0.013  0.000  0.000  0.000  0.000  0.000  0.488
tot    0.000  0.644  0.000  0.018  0.000  0.017  0.000  0.004  0.000  0.684
 
band     7 # energy   -6.92362835 # occ.  2.00000000
 
ion      s     py     pz     px    dxy    dyz    dz2    dxz  x2-y2    tot
    1  0.010  0.000  0.000  0.000  0.000  0.000  0.001  0.000  0.000  0.011
    2  0.021  0.000  0.000  0.000  0.001  0.000  0.016  0.000  0.006  0.044
    3  0.021  0.000  0.000  0.000  0.007  0.000  0.012  0.000  0.000  0.041
    4  0.024  0.000  0.001  0.000  0.006  0.000  0.002  0.000  0.001  0.034
    5  0.000  0.000  0.002  0.000  0.000  0.000  0.000  0.000  0.000  0.003
    6  0.007  0.000  0.003  0.000  0.002  0.001  0.014  0.000  0.023  0.050
    7  0.008  0.000  0.004  0.000  0.017  0.000  0.028  0.000  0.003  0.060
    8  0.010  0.000  0.004  0.000  0.014  0.000  0.003  0.000  0.011  0.043
    9  0.023  0.000  0.000  0.000  0.000  0.000  0.002  0.000  0.000  0.025
   10  0.049  0.000  0.001  0.000  0.000  0.000  0.025  0.000  0.012  0.087
   11  0.038  0.000  0.000  0.000  0.011  0.000  0.052  0.002  0.002  0.104
   12  0.041  0.000  0.000  0.000  0.010  0.001  0.033  0.001  0.003  0.089
   13  0.000  0.000  0.007  0.000  0.000  0.000  0.012  0.000  0.000  0.019
   14  0.009  0.000  0.002  0.000  0.000  0.000  0.000  0.000  0.010  0.022
   15  0.012  0.000  0.002  0.000  0.004  0.000  0.000  0.000  0.006  0.023
   16  0.015  0.000  0.002  0.000  0.004  0.000  0.000  0.000  0.004  0.025
   17  0.005  0.000  0.018  0.000  0.000  0.000  0.000  0.000  0.000  0.023
   18  0.000  0.000  0.015  0.000  0.000  0.000  0.000  0.000  0.000  0.016
tot    0.294  0.000  0.061  0.000  0.075  0.004  0.199  0.005  0.081  0.719
 
band     8 # energy   -6.88593571 # occ.  2.00000000
 
ion      s     py     pz     px    dxy    dyz    dz2    dxz  x2-y2    tot
    1  0.006  0.000  0.000  0.000  0.000  0.000  0.001  0.000  0.000  0.007
    2  0.023  0.000  0.000  0.000  0.002  0.000  0.028  0.002  0.033  0.089
    3  0.023  0.000  0.000  0.000  0.018  0.002  0.028  0.000  0.018  0.090
    4  0.016  0.000  0.001  0.000  0.022  0.000  0.100  0.000  0.007  0.147
    5  0.004  0.000  0.000  0.000  0.000  0.000  0.000  0.000  0.000  0.005
    6  0.007  0.000  0.000  0.000  0.002  0.001  0.029  0.000  0.112  0.152
    7  0.008  0.000  0.001  0.000  0.071  0.000  0.026  0.001  0.043  0.149
    8  0.007  0.000  0.001  0.000  0.079  0.000  0.070  0.001  0.028  0.185
    9  0.000  0.000  0.000  0.000  0.000  0.000  0.000  0.000  0.000  0.001
   10  0.001  0.000  0.000  0.000  0.001  0.001  0.000  0.001  0.000  0.004
   11  0.001  0.000  0.000  0.000  0.000  0.000  0.010  0.000  0.000  0.012
   12  0.000  0.000  0.000  0.000  0.000  0.002  0.000  0.000  0.002  0.004
   13  0.000  0.000  0.000  0.000  0.000  0.000  0.001  0.000  0.000  0.001
   14  0.001  0.000  0.000  0.000  0.000  0.000  0.000  0.000  0.000  0.001
   15  0.000  0.000  0.000  0.000  0.000  0.000  0.000  0.000  0.000  0.001
   16  0.000  0.000  0.000  0.000  0.000  0.000  0.000  0.000  0.000  0.000
   17  0.000  0.000  0.001  0.000  0.000  0.000  0.000  0.000  0.000  0.001
   18  0.000  0.000  0.001  0.000  0.000  0.000  0.000  0.000  0.000  0.001
tot    0.099  0.000  0.005  0.000  0.197  0.006  0.293  0.006  0.243  0.850
 
band     9 # energy   -6.73366128 # occ.  2.00000000
 
ion      s     py     pz     px    dxy    dyz    dz2    dxz  x2-y2    tot
    1  0.003  0.000  0.000  0.000  0.000  0.000  0.000  0.000  0.000  0.005
    2  0.001  0.000  0.000  0.000  0.000  0.005  0.028  0.004  0.063  0.103
    3  0.002  0.000  0.000  0.000  0.038  0.009  0.034  0.001  0.024  0.108
    4  0.013  0.000  0.001  0.000  0.039  0.000  0.001  0.000  0.021  0.075
    5  0.038  0.000  0.000  0.000  0.000  0.000  0.003  0.000  0.000  0.041
    6  0.001  0.000  0.000  0.000  0.001  0.013  0.004  0.001  0.070  0.089
    7  0.000  0.000  0.000  0.000  0.070  0.007  0.023  0.006  0.007  0.113
    8  0.000  0.000  0.000  0.000  0.068  0.002  0.053  0.006  0.013  0.143
    9  0.000  0.000  0.000  0.000  0.000  0.000  0.001  0.001  0.000  0.003
   10  0.002  0.000  0.001  0.000  0.000  0.005  0.022  0.003  0.023  0.056
   11  0.015  0.000  0.000  0.000  0.010  0.000  0.001  0.001  0.008  0.036
   12  0.004  0.000  0.000  0.000  0.009  0.008  0.027  0.000  0.013  0.062
   13  0.000  0.000  0.001  0.000  0.000  0.000  0.001  0.000  0.000  0.002
   14  0.001  0.000  0.000  0.000  0.001  0.000  0.002  0.000  0.000  0.004
   15  0.001  0.000  0.000  0.000  0.000  0.000  0.000  0.000  0.000  0.001
   16  0.000  0.000  0.000  0.000  0.000  0.000  0.000  0.000  0.000  0.001
   17  0.000  0.000  0.001  0.000  0.000  0.000  0.000  0.000  0.000  0.002
   18  0.000  0.000  0.001  0.000  0.000  0.000  0.000  0.000  0.000  0.001
tot    0.082  0.001  0.008  0.001  0.237  0.051  0.197  0.022  0.244  0.843
 
band    10 # energy   -6.65674679 # occ.  2.00000000
 
ion      s     py     pz     px    dxy    dyz    dz2    dxz  x2-y2    tot
    1  0.006  0.000  0.000  0.000  0.000  0.000  0.001  0.000  0.001  0.008
    2  0.000  0.000  0.000  0.000  0.001  0.004  0.000  0.003  0.015  0.024
    3  0.001  0.000  0.000  0.000  0.028  0.005  0.000  0.001  0.000  0.035
    4  0.003  0.000  0.000  0.000  0.026  0.000  0.001  0.000  0.000  0.032
    5  0.002  0.000  0.000  0.000  0.000  0.000  0.000  0.002  0.000  0.006
    6  0.000  0.000  0.001  0.000  0.004  0.026  0.002  0.017  0.002  0.052
    7  0.002  0.000  0.000  0.000  0.002  0.001  0.013  0.009  0.000  0.025
    8  0.000  0.000  0.000  0.000  0.001  0.033  0.018  0.012  0.005  0.068
    9  0.028  0.000  0.000  0.000  0.000  0.000  0.001  0.000  0.000  0.030
   10  0.000  0.000  0.000  0.000  0.001  0.002  0.007  0.002  0.126  0.138
   11  0.001  0.000  0.001  0.000  0.104  0.000  0.000  0.002  0.021  0.129
   12  0.000  0.000  0.000  0.000  0.101  0.003  0.001  0.001  0.032  0.138
   13  0.000  0.000  0.001  0.000  0.000  0.002  0.002  0.000  0.000  0.006
   14  0.007  0.000  0.000  0.000  0.000  0.000  0.019  0.000  0.019  0.045
   15  0.010  0.000  0.000  0.000  0.022  0.002  0.004  0.006  0.002  0.046
   16  0.010  0.000  0.000  0.000  0.020  0.001  0.003  0.006  0.003  0.044
   17  0.001  0.000  0.003  0.000  0.000  0.000  0.000  0.000  0.000  0.004
   18  0.000  0.001  0.002  0.000  0.000  0.000  0.000  0.000  0.000  0.003
tot    0.070  0.002  0.010  0.001  0.310  0.080  0.071  0.062  0.228  0.833
 
band    11 # energy   -6.62008101 # occ.  2.00000000
 
ion      s     py     pz     px    dxy    dyz    dz2    dxz  x2-y2    tot
    1  0.019  0.000  0.000  0.000  0.001  0.001  0.002  0.002  0.000  0.025
    2  0.004  0.000  0.000  0.001  0.007  0.016  0.003  0.014  0.030  0.075
    3  0.005  0.001  0.000  0.000  0.014  0.031  0.003  0.001  0.022  0.078
    4  0.000  0.000  0.001  0.000  0.021  0.002  0.026  0.001  0.005  0.057
    5  0.006  0.000  0.000  0.000  0.000  0.001  0.001  0.001  0.000  0.009
    6  0.001  0.000  0.000  0.000  0.002  0.118  0.014  0.006  0.006  0.147
    7  0.000  0.000  0.000  0.000  0.001  0.059  0.030  0.067  0.009  0.166
    8  0.000  0.000  0.000  0.000  0.002  0.025  0.005  0.067  0.003  0.102
    9  0.000  0.000  0.000  0.000  0.001  0.001  0.000  0.002  0.001  0.005
   10  0.003  0.000  0.000  0.000  0.004  0.016  0.004  0.016  0.001  0.044
   11  0.002  0.000  0.000  0.000  0.006  0.002  0.020  0.000  0.000  0.031
   12  0.001  0.000  0.000  0.000  0.008  0.030  0.002  0.000  0.006  0.047
   13  0.000  0.000  0.000  0.000  0.000  0.000  0.001  0.000  0.000  0.002
   14  0.002  0.000  0.000  0.000  0.000  0.002  0.007  0.002  0.007  0.019
   15  0.003  0.000  0.000  0.000  0.005  0.004  0.004  0.000  0.002  0.018
   16  0.003  0.000  0.000  0.000  0.005  0.000  0.003  0.000  0.002  0.014
   17  0.000  0.000  0.001  0.000  0.000  0.000  0.000  0.000  0.000  0.001
   18  0.000  0.000  0.001  0.000  0.000  0.000  0.000  0.000  0.000  0.001
tot    0.049  0.003  0.004  0.002  0.077  0.308  0.126  0.179  0.092  0.840
 
band    12 # energy   -6.57219731 # occ.  2.00000000
 
ion      s     py     pz     px    dxy    dyz    dz2    dxz  x2-y2    tot
    1  0.011  0.000  0.000  0.000  0.000  0.000  0.001  0.000  0.000  0.013
    2  0.000  0.000  0.000  0.000  0.000  0.002  0.009  0.000  0.011  0.023
    3  0.002  0.000  0.000  0.000  0.013  0.000  0.006  0.006  0.001  0.027
    4  0.002  0.000  0.000  0.000  0.013  0.000  0.004  0.007  0.000  0.026
    5  0.001  0.000  0.001  0.000  0.003  0.000  0.000  0.001  0.000  0.005
    6  0.000  0.000  0.001  0.000  0.032  0.000  0.000  0.008  0.000  0.041
    7  0.005  0.000  0.000  0.000  0.003  0.004  0.011  0.000  0.010  0.033
    8  0.008  0.000  0.000  0.000  0.000  0.001  0.002  0.000  0.006  0.018
    9  0.019  0.000  0.000  0.000  0.000  0.000  0.001  0.000  0.000  0.020
   10  0.000  0.000  0.000  0.000  0.000  0.012  0.067  0.000  0.018  0.098
   11  0.002  0.000  0.000  0.000  0.008  0.000  0.009  0.018  0.007  0.045
   12  0.003  0.000  0.000  0.000  0.009  0.002  0.007  0.017  0.008  0.046
   13  0.000  0.000  0.000  0.000  0.000  0.000  0.002  0.000  0.000  0.003
   14  0.027  0.000  0.001  0.000  0.001  0.001  0.020  0.000  0.074  0.123
   15  0.016  0.000  0.000  0.000  0.077  0.000  0.048  0.003  0.013  0.157
   16  0.012  0.000  0.000  0.000  0.073  0.000  0.052  0.003  0.017  0.157
   17  0.000  0.000  0.000  0.000  0.000  0.000  0.000  0.000  0.000  0.000
   18  0.000  0.000  0.000  0.000  0.000  0.000  0.000  0.000  0.000  0.000
tot    0.108  0.000  0.004  0.001  0.232  0.024  0.238  0.062  0.165  0.834
 
band    13 # energy   -6.46282128 # occ.  2.00000000
 
ion      s     py     pz     px    dxy    dyz    dz2    dxz  x2-y2    tot
    1  0.000  0.000  0.000  0.000  0.000  0.001  0.000  0.000  0.000  0.002
    2  0.000  0.000  0.000  0.000  0.003  0.030  0.000  0.000  0.000  0.033
    3  0.000  0.000  0.000  0.001  0.001  0.002  0.002  0.065  0.000  0.071
    4  0.000  0.000  0.000  0.002  0.000  0.001  0.000  0.077  0.001  0.081
    5  0.000  0.000  0.000  0.000  0.005  0.000  0.000  0.007  0.000  0.013
    6  0.000  0.000  0.000  0.000  0.052  0.000  0.001  0.059  0.000  0.113
    7  0.016  0.000  0.000  0.000  0.000  0.028  0.016  0.001  0.004  0.065
    8  0.009  0.000  0.000  0.000  0.008  0.022  0.014  0.000  0.024  0.078
    9  0.001  0.000  0.000  0.000  0.000  0.001  0.000  0.000  0.000  0.002
   10  0.000  0.000  0.000  0.000  0.000  0.061  0.015  0.001  0.001  0.078
   11  0.000  0.000  0.000  0.000  0.000  0.009  0.001  0.086  0.000  0.097
   12  0.000  0.000  0.000  0.000  0.000  0.005  0.001  0.082  0.000  0.089
   13  0.000  0.000  0.001  0.000  0.000  0.002  0.002  0.000  0.002  0.008
   14  0.000  0.000  0.000  0.000  0.000  0.002  0.018  0.000  0.011  0.031
   15  0.008  0.000  0.000  0.000  0.001  0.000  0.007  0.013  0.013  0.042
   16  0.006  0.000  0.000  0.000  0.000  0.000  0.009  0.013  0.017  0.045
   17  0.001  0.000  0.002  0.000  0.000  0.000  0.000  0.000  0.000  0.003
   18  0.000  0.001  0.002  0.000  0.000  0.000  0.000  0.000  0.000  0.002
tot    0.042  0.002  0.007  0.004  0.071  0.165  0.084  0.405  0.073  0.853
 
band    14 # energy   -6.43076433 # occ.  2.00000000
 
ion      s     py     pz     px    dxy    dyz    dz2    dxz  x2-y2    tot
    1  0.022  0.000  0.000  0.000  0.005  0.000  0.006  0.000  0.000  0.032
    2  0.001  0.000  0.000  0.000  0.045  0.001  0.014  0.000  0.054  0.116
    3  0.002  0.000  0.001  0.000  0.049  0.002  0.017  0.000  0.001  0.073
    4  0.014  0.000  0.001  0.000  0.025  0.001  0.001  0.000  0.057  0.099
    5  0.005  0.000  0.000  0.000  0.000  0.003  0.003  0.000  0.000  0.013
    6  0.001  0.000  0.000  0.000  0.000  0.013  0.090  0.004  0.003  0.111
    7  0.004  0.000  0.001  0.000  0.005  0.004  0.010  0.065  0.000  0.089
    8  0.004  0.000  0.000  0.000  0.005  0.000  0.004  0.071  0.000  0.085
    9  0.006  0.000  0.000  0.000  0.004  0.000  0.002  0.000  0.000  0.013
   10  0.000  0.000  0.000  0.000  0.044  0.003  0.003  0.000  0.031  0.083
   11  0.005  0.000  0.000  0.000  0.008  0.003  0.001  0.001  0.050  0.068
   12  0.007  0.000  0.001  0.000  0.025  0.003  0.006  0.001  0.001  0.043
   13  0.000  0.000  0.000  0.000  0.000  0.000  0.000  0.001  0.000  0.001
   14  0.000  0.000  0.000  0.000  0.000  0.000  0.001  0.003  0.000  0.005
   15  0.001  0.000  0.000  0.000  0.000  0.001  0.005  0.002  0.000  0.009
   16  0.000  0.000  0.000  0.000  0.000  0.002  0.000  0.002  0.000  0.005
   17  0.000  0.000  0.000  0.000  0.000  0.000  0.000  0.000  0.000  0.000
   18  0.000  0.000  0.000  0.000  0.000  0.000  0.000  0.000  0.000  0.000
tot    0.073  0.001  0.005  0.001  0.217  0.037  0.162  0.151  0.198  0.845
 
band    15 # energy   -6.36846268 # occ.  2.00000000
 
ion      s     py     pz     px    dxy    dyz    dz2    dxz  x2-y2    tot
    1  0.000  0.000  0.000  0.000  0.002  0.000  0.000  0.001  0.001  0.004
    2  0.000  0.000  0.000  0.000  0.015  0.022  0.010  0.010  0.001  0.058
    3  0.000  0.000  0.000  0.000  0.003  0.006  0.025  0.008  0.000  0.042
    4  0.000  0.001  0.000  0.000  0.008  0.034  0.000  0.010  0.015  0.068
    5  0.000  0.000  0.000  0.000  0.000  0.000  0.000  0.000  0.026  0.027
    6  0.023  0.000  0.000  0.000  0.000  0.002  0.009  0.004  0.001  0.039
    7  0.005  0.000  0.000  0.000  0.077  0.001  0.004  0.003  0.152  0.242
    8  0.010  0.000  0.000  0.000  0.083  0.003  0.001  0.004  0.163  0.265
    9  0.001  0.000  0.000  0.000  0.001  0.001  0.000  0.001  0.000  0.005
   10  0.000  0.000  0.000  0.000  0.011  0.009  0.001  0.007  0.001  0.030
   11  0.001  0.000  0.000  0.000  0.004  0.023  0.000  0.000  0.003  0.032
   12  0.000  0.000  0.000  0.000  0.001  0.005  0.024  0.000  0.002  0.032
   13  0.000  0.000  0.000  0.000  0.001  0.000  0.003  0.000  0.001  0.005
   14  0.002  0.000  0.000  0.000  0.004  0.000  0.000  0.000  0.000  0.007
   15  0.000  0.000  0.000  0.000  0.000  0.000  0.001  0.000  0.000  0.001
   16  0.001  0.000  0.000  0.000  0.001  0.000  0.004  0.000  0.006  0.012
   17  0.000  0.000  0.001  0.000  0.000  0.000  0.000  0.000  0.000  0.001
   18  0.000  0.000  0.001  0.000  0.000  0.000  0.000  0.000  0.000  0.001
tot    0.044  0.001  0.004  0.001  0.210  0.106  0.083  0.049  0.373  0.872
 
band    16 # energy   -6.28375179 # occ.  2.00000000
 
ion      s     py     pz     px    dxy    dyz    dz2    dxz  x2-y2    tot
    1  0.000  0.000  0.000  0.000  0.000  0.001  0.000  0.002  0.004  0.008
    2  0.000  0.000  0.001  0.000  0.003  0.034  0.030  0.010  0.000  0.078
    3  0.000  0.000  0.000  0.000  0.012  0.000  0.014  0.006  0.012  0.044
    4  0.001  0.001  0.000  0.000  0.017  0.044  0.000  0.010  0.027  0.100
    5  0.000  0.000  0.000  0.000  0.008  0.005  0.000  0.000  0.000  0.015
    6  0.002  0.000  0.000  0.000  0.102  0.002  0.058  0.003  0.002  0.170
    7  0.001  0.000  0.000  0.000  0.003  0.005  0.038  0.037  0.005  0.089
    8  0.009  0.000  0.001  0.000  0.004  0.020  0.000  0.038  0.053  0.125
    9  0.000  0.000  0.000  0.000  0.000  0.001  0.001  0.002  0.001  0.006
   10  0.003  0.000  0.000  0.000  0.001  0.047  0.000  0.026  0.000  0.078
   11  0.000  0.000  0.000  0.000  0.006  0.057  0.000  0.010  0.004  0.078
   12  0.001  0.000  0.000  0.000  0.004  0.001  0.009  0.009  0.001  0.025
   13  0.000  0.000  0.000  0.000  0.000  0.002  0.003  0.001  0.001  0.007
   14  0.001  0.000  0.000  0.000  0.000  0.000  0.000  0.002  0.003  0.006
   15  0.002  0.000  0.001  0.000  0.009  0.001  0.004  0.007  0.000  0.025
   16  0.000  0.000  0.000  0.000  0.012  0.004  0.000  0.005  0.001  0.023
   17  0.000  0.000  0.001  0.000  0.000  0.000  0.000  0.000  0.000  0.001
   18  0.000  0.001  0.001  0.000  0.000  0.000  0.000  0.000  0.000  0.001
tot    0.022  0.003  0.005  0.002  0.183  0.225  0.158  0.169  0.115  0.880
 
band    17 # energy   -6.22068056 # occ.  2.00000000
 
ion      s     py     pz     px    dxy    dyz    dz2    dxz  x2-y2    tot
    1  0.000  0.000  0.001  0.000  0.000  0.000  0.004  0.001  0.003  0.009
    2  0.000  0.000  0.000  0.000  0.002  0.008  0.004  0.017  0.000  0.031
    3  0.007  0.000  0.001  0.000  0.016  0.002  0.003  0.002  0.028  0.060
    4  0.004  0.000  0.000  0.000  0.013  0.022  0.007  0.001  0.014  0.060
    5  0.001  0.000  0.000  0.000  0.009  0.008  0.000  0.001  0.001  0.021
    6  0.000  0.000  0.000  0.000  0.131  0.010  0.033  0.015  0.001  0.190
    7  0.002  0.000  0.001  0.000  0.013  0.069  0.024  0.035  0.069  0.214
    8  0.003  0.000  0.000  0.000  0.001  0.014  0.015  0.039  0.005  0.078
    9  0.000  0.000  0.000  0.000  0.000  0.001  0.000  0.002  0.000  0.004
   10  0.011  0.000  0.000  0.000  0.002  0.003  0.015  0.009  0.000  0.041
   11  0.000  0.000  0.000  0.000  0.002  0.023  0.005  0.001  0.000  0.032
   12  0.000  0.000  0.000  0.000  0.004  0.001  0.037  0.003  0.003  0.047
   13  0.000  0.000  0.000  0.000  0.000  0.000  0.003  0.001  0.000  0.005
   14  0.002  0.000  0.000  0.000  0.000  0.018  0.010  0.001  0.001  0.032
   15  0.001  0.000  0.000  0.000  0.003  0.006  0.002  0.008  0.001  0.022
   16  0.000  0.000  0.000  0.000  0.002  0.010  0.009  0.010  0.001  0.033
   17  0.000  0.000  0.001  0.000  0.000  0.000  0.000  0.000  0.000  0.001
   18  0.000  0.000  0.000  0.000  0.000  0.000  0.000  0.000  0.000  0.000
tot    0.034  0.001  0.004  0.001  0.198  0.193  0.172  0.147  0.129  0.880
 
band    18 # energy   -6.14503612 # occ.  2.00000000
 
ion      s     py     pz     px    dxy    dyz    dz2    dxz  x2-y2    tot
    1  0.002  0.000  0.000  0.000  0.001  0.000  0.000  0.000  0.007  0.010
    2  0.017  0.000  0.002  0.000  0.021  0.001  0.001  0.005  0.008  0.055
    3  0.003  0.000  0.000  0.000  0.043  0.000  0.001  0.004  0.012  0.063
    4  0.000  0.000  0.000  0.000  0.069  0.002  0.001  0.003  0.057  0.131
    5  0.000  0.000  0.000  0.000  0.005  0.001  0.000  0.003  0.000  0.010
    6  0.004  0.000  0.000  0.001  0.072  0.007  0.005  0.032  0.000  0.121
    7  0.003  0.000  0.000  0.000  0.001  0.000  0.001  0.002  0.012  0.019
    8  0.001  0.000  0.001  0.000  0.006  0.063  0.041  0.002  0.018  0.132
    9  0.001  0.000  0.001  0.000  0.001  0.000  0.003  0.000  0.006  0.013
   10  0.002  0.000  0.000  0.000  0.013  0.001  0.004  0.000  0.006  0.027
   11  0.002  0.000  0.000  0.000  0.058  0.001  0.002  0.002  0.042  0.106
   12  0.010  0.000  0.000  0.000  0.042  0.002  0.000  0.002  0.009  0.065
   13  0.002  0.000  0.004  0.000  0.000  0.000  0.008  0.000  0.001  0.015
   14  0.000  0.000  0.000  0.000  0.001  0.006  0.000  0.001  0.020  0.028
   15  0.000  0.000  0.000  0.000  0.008  0.000  0.000  0.006  0.017  0.032
   16  0.000  0.000  0.000  0.000  0.011  0.003  0.001  0.007  0.012  0.033
   17  0.002  0.000  0.005  0.000  0.000  0.000  0.000  0.000  0.000  0.008
   18  0.000  0.000  0.003  0.000  0.000  0.000  0.000  0.000  0.000  0.004
tot    0.050  0.001  0.018  0.001  0.352  0.088  0.067  0.069  0.228  0.873
 
band    19 # energy   -6.10895744 # occ.  2.00000000
 
ion      s     py     pz     px    dxy    dyz    dz2    dxz  x2-y2    tot
    1  0.000  0.000  0.000  0.000  0.000  0.000  0.000  0.000  0.002  0.003
    2  0.001  0.000  0.000  0.000  0.001  0.002  0.000  0.001  0.005  0.010
    3  0.000  0.000  0.000  0.000  0.002  0.001  0.007  0.005  0.026  0.042
    4  0.001  0.000  0.000  0.000  0.001  0.000  0.005  0.004  0.018  0.029
    5  0.000  0.000  0.000  0.000  0.000  0.000  0.001  0.000  0.000  0.002
    6  0.001  0.000  0.000  0.000  0.000  0.000  0.000  0.001  0.000  0.002
    7  0.000  0.000  0.000  0.000  0.000  0.001  0.008  0.001  0.000  0.012
    8  0.002  0.000  0.000  0.000  0.000  0.000  0.004  0.003  0.000  0.009
    9  0.000  0.000  0.000  0.000  0.003  0.000  0.000  0.000  0.016  0.020
   10  0.011  0.000  0.000  0.000  0.048  0.000  0.001  0.002  0.006  0.070
   11  0.005  0.000  0.001  0.000  0.018  0.002  0.060  0.001  0.061  0.148
   12  0.000  0.000  0.000  0.000  0.049  0.000  0.005  0.001  0.204  0.259
   13  0.004  0.000  0.001  0.000  0.003  0.000  0.050  0.000  0.002  0.061
   14  0.007  0.000  0.000  0.000  0.021  0.011  0.017  0.000  0.022  0.078
   15  0.006  0.000  0.000  0.000  0.001  0.002  0.012  0.007  0.050  0.079
   16  0.003  0.000  0.001  0.000  0.008  0.001  0.002  0.014  0.007  0.036
   17  0.004  0.000  0.007  0.000  0.000  0.000  0.000  0.000  0.000  0.010