<?xml version="1.0" encoding="ISO-8859-1"?>
<modeling>
 <generator>
  <i name="program" type="string">vasp </i>
  <i name="version" type="string">6.5.1  </i>
  <i name="subversion" type="string">10Mar25 (build Mar 14 2026 15:48:08) complex                          parallel </i>
  <i name="platform" type="string">LinuxNV </i>
  <i name="date" type="string">2026 03 23 </i>
  <i name="time" type="string">17:05:52 </i>
 </generator>
 <incar>
  <i type="string" name="SYSTEM">Cu-Ag alloy CO adsorption (RPBE, matches CatHub)</i>
  <i type="string" name="PREC">Normal</i>
  <i type="string" name="ALGO">Normal</i>
  <i type="int" name="ISPIN">     1</i>
  <i type="int" name="NELM">   200</i>
  <i type="int" name="IBRION">     2</i>
  <i name="EDIFF">      0.00000100</i>
  <i name="EDIFFG">     -0.03000000</i>
  <i type="int" name="NSW">   200</i>
  <i type="int" name="ISIF">     2</i>
  <i name="ENCUT">    450.00000000</i>
  <i type="string" name="LREAL">Auto</i>
  <i type="int" name="ISMEAR">     0</i>
  <i name="SIGMA">      0.10000000</i>
  <i type="logical" name="LWAVE"> F  </i>
  <i type="logical" name="LCHARG"> F  </i>
  <i type="int" name="LORBIT">    11</i>
  <i type="string" name="GGA">RP</i>
 </incar>
 <primitive_cell>
  <structure name="primitive_cell" >
   <crystal>
    <varray name="basis" >
     <v>       5.61089231       0.00000000       0.00000000 </v>
     <v>       2.80544615       4.85917528       0.00000000 </v>
     <v>       0.00000000       0.00000000      30.87191158 </v>
    </varray>
    <i name="volume">    841.70134257 </i>
    <varray name="rec_basis" >
     <v>       0.17822477      -0.10289812       0.00000000 </v>
     <v>       0.00000000       0.20579624       0.00000000 </v>
     <v>       0.00000000       0.00000000       0.03239190 </v>
    </varray>
   </crystal>
   <varray name="positions" >
    <v>       0.00000000       0.00000000       0.38870285 </v>
    <v>       0.50000000       0.00000000       0.38870285 </v>
    <v>       0.00000000       0.50000000       0.38870285 </v>
    <v>       0.50000000       0.50000000       0.38870285 </v>
    <v>       0.16666667       0.16666667       0.46290095 </v>
    <v>       0.66666667       0.16666667       0.46290095 </v>
    <v>       0.16666667       0.66666667       0.46290095 </v>
    <v>       0.66666667       0.66666667       0.46290095 </v>
    <v>       0.83333333       0.33333333       0.53709905 </v>
    <v>       0.33333333       0.33333333       0.53709905 </v>
    <v>       0.83333333       0.83333333       0.53709905 </v>
    <v>       0.33333333       0.83333333       0.53709905 </v>
    <v>       0.00000000       0.00000000       0.61129715 </v>
    <v>       0.50000000       0.00000000       0.61129715 </v>
    <v>       0.00000000       0.50000000       0.61129715 </v>
    <v>       0.50000000       0.50000000       0.61129715 </v>
    <v>       0.16666667       0.16666667       0.66960258 </v>
    <v>       0.16666667       0.16666667       0.70620543 </v>
   </varray>
  </structure>
  <varray name="primitive_index" >
   <v type="int" >        1 </v>
   <v type="int" >        2 </v>
   <v type="int" >        3 </v>
   <v type="int" >        4 </v>
   <v type="int" >        5 </v>
   <v type="int" >        6 </v>
   <v type="int" >        7 </v>
   <v type="int" >        8 </v>
   <v type="int" >        9 </v>
   <v type="int" >       10 </v>
   <v type="int" >       11 </v>
   <v type="int" >       12 </v>
   <v type="int" >       13 </v>
   <v type="int" >       14 </v>
   <v type="int" >       15 </v>
   <v type="int" >       16 </v>
   <v type="int" >       17 </v>
   <v type="int" >       18 </v>
  </varray>
 </primitive_cell>
 <kpoints>
  <generation param="Gamma">
   <v type="int" name="divisions">       4        4        1 </v>
   <v name="usershift">      0.00000000       0.00000000       0.00000000 </v>
   <v name="genvec1">      0.25000000       0.00000000       0.00000000 </v>
   <v name="genvec2">      0.00000000       0.25000000       0.00000000 </v>
   <v name="genvec3">      0.00000000       0.00000000       1.00000000 </v>
   <v name="shift">      0.00000000       0.00000000       0.00000000 </v>
  </generation>
  <varray name="kpointlist" >
   <v>       0.00000000       0.00000000       0.00000000 </v>
   <v>       0.25000000       0.00000000       0.00000000 </v>
   <v>       0.25000000       0.25000000       0.00000000 </v>
   <v>       0.00000000       0.25000000       0.00000000 </v>
   <v>       0.50000000       0.00000000       0.00000000 </v>
   <v>       0.50000000       0.50000000       0.00000000 </v>
   <v>       0.00000000       0.50000000       0.00000000 </v>
   <v>       0.50000000       0.25000000       0.00000000 </v>
   <v>       0.25000000       0.50000000       0.00000000 </v>
   <v>      -0.25000000       0.25000000       0.00000000 </v>
  </varray>
  <varray name="weights" >
   <v>       0.06250000 </v>
   <v>       0.12500000 </v>
   <v>       0.12500000 </v>
   <v>       0.12500000 </v>
   <v>       0.06250000 </v>
   <v>       0.06250000 </v>
   <v>       0.06250000 </v>
   <v>       0.12500000 </v>
   <v>       0.12500000 </v>
   <v>       0.12500000 </v>
  </varray>
 </kpoints>
 <parameters>
  <separator name="general" >
   <i type="string" name="SYSTEM">Cu-Ag alloy CO adsorption (RPBE, matches</i>
   <i type="logical" name="LCOMPAT"> F  </i>
  </separator>
  <separator name="electronic" >
   <i type="string" name="PREC">normal</i>
   <i name="ENMAX">    450.00000000</i>
   <i name="ENAUG">    644.87300000</i>
   <i name="EDIFF">      0.00000100</i>
   <i type="int" name="IALGO">    38</i>
   <i type="int" name="IWAVPR">    11</i>
   <i type="int" name="NBANDS">   111</i>
   <i type="int" name="NBANDSLOW">    -1</i>
   <i type="int" name="NBANDSHIGH">    -1</i>
   <i name="NELECT">    186.00000000</i>
   <i type="int" name="TURBO">     0</i>
   <i type="int" name="IRESTART">     0</i>
   <i type="int" name="NREBOOT">     0</i>
   <i type="int" name="NMIN">     0</i>
   <i name="EREF">      0.00000000</i>
   <separator name="electronic smearing" >
    <i type="int" name="ISMEAR">     0</i>
    <i name="SIGMA">      0.10000000</i>
    <i name="KSPACING">      0.50000000</i>
    <i type="logical" name="KGAMMA"> T  </i>
    <i type="logical" name="KBLOWUP"> T  </i>
   </separator>
   <separator name="electronic projectors" >
    <i type="logical" name="LREAL"> T  </i>
    <v name="ROPT">     -0.00050000     -0.00050000     -0.00050000     -0.00050000     -0.00050000     -0.00050000     -0.00050000     -0.00050000     -0.00050000     -0.00050000</v>
    <i type="int" name="LMAXPAW">  -100</i>
    <i type="int" name="LMAXMIX">     2</i>
    <i type="logical" name="NLSPLINE"> F  </i>
   </separator>
   <separator name="electronic startup" >
    <i type="int" name="ISTART">     0</i>
    <i type="int" name="ICHARG">     2</i>
    <i type="int" name="INIWAV">     1</i>
   </separator>
   <separator name="electronic spin" >
    <i type="int" name="ISPIN">     1</i>
    <i type="logical" name="LNONCOLLINEAR"> F  </i>
    <v name="MAGMOM">      1.00000000      1.00000000      1.00000000      1.00000000      1.00000000      1.00000000      1.00000000      1.00000000      1.00000000      1.00000000      1.00000000      1.00000000      1.00000000      1.00000000      1.00000000      1.00000000      1.00000000      1.00000000</v>
    <i name="NUPDOWN">     -1.00000000</i>
    <i type="logical" name="LSORBIT"> F  </i>
    <v name="SAXIS">      0.00000000      0.00000000      1.00000000</v>
    <i type="logical" name="LSPIRAL"> F  </i>
    <v name="QSPIRAL">      0.00000000      0.00000000      0.00000000</v>
    <i type="logical" name="LZEROZ"> F  </i>
   </separator>
   <separator name="electronic exchange-correlation" >
    <i type="logical" name="LASPH"> F  </i>
   </separator>
   <separator name="electronic convergence" >
    <i type="int" name="NELM">   200</i>
    <i type="int" name="NELMDL">    -5</i>
    <i type="int" name="NELMIN">     2</i>
    <i name="ENINI">    450.00000000</i>
    <separator name="electronic convergence detail" >
     <i type="logical" name="LDIAG"> T  </i>
     <i type="logical" name="LSUBROT"> F  </i>
     <i type="logical" name="LROBUST"> F  </i>
     <i type="int" name="ISEARCH">     0</i>
     <i name="WEIMIN">      0.00100000</i>
     <i name="EBREAK">      0.00000000</i>
     <i name="DEPER">      0.30000000</i>
     <i type="int" name="NRMM">     4</i>
     <i name="TIME">      0.40000000</i>
    </separator>
   </separator>
   <separator name="electronic mixer" >
    <i name="AMIX">      0.40000000</i>
    <i name="BMIX">      1.00000000</i>
    <i name="AMIN">      0.10000000</i>
    <i name="AMIX_MAG">      1.60000000</i>
    <i name="BMIX_MAG">      1.00000000</i>
    <separator name="electronic mixer details" >
     <i type="int" name="IMIX">     4</i>
     <i type="logical" name="MIXFIRST"> F  </i>
     <i type="int" name="MAXMIX">   -45</i>
     <i name="WC">    100.00000000</i>
     <i type="int" name="INIMIX">     1</i>
     <i type="int" name="MIXPRE">     1</i>
     <i type="int" name="MREMOVE">     5</i>
    </separator>
   </separator>
   <separator name="electronic dipolcorrection" >
    <i type="logical" name="LDIPOL"> F  </i>
    <i type="logical" name="LMONO"> F  </i>
    <i type="int" name="IDIPOL">     0</i>
    <i name="EPSILON">      1.00000000</i>
    <v name="DIPOL">   -100.00000000   -100.00000000   -100.00000000</v>
    <i name="EFIELD">      0.00000000</i>
    <i type="logical" name="LVACPOTAV"> F  </i>
   </separator>
  </separator>
  <separator name="grids" >
   <i type="int" name="NGX">    30</i>
   <i type="int" name="NGY">    30</i>
   <i type="int" name="NGZ">   160</i>
   <i type="int" name="NGXF">    60</i>
   <i type="int" name="NGYF">    60</i>
   <i type="int" name="NGZF">   320</i>
   <i type="logical" name="ADDGRID"> F  </i>
  </separator>
  <separator name="ionic" >
   <i type="int" name="NSW">   200</i>
   <i type="int" name="IBRION">     2</i>
   <i type="int" name="MDALGO">     0</i>
   <i type="int" name="ISIF">     2</i>
   <i name="PSTRESS">      0.00000000</i>
   <i name="EDIFFG">     -0.03000000</i>
   <i type="int" name="NFREE">     1</i>
   <i name="POTIM">      0.50000000</i>
   <i name="SMASS">     -3.00000000</i>
   <i name="SCALEE">      1.00000000</i>
  </separator>
  <separator name="ionic md" >
   <i name="TEBEG">      0.00010000</i>
   <i name="TEEND">      0.00010000</i>
   <i type="int" name="NBLOCK">     1</i>
   <i type="int" name="KBLOCK">   200</i>
   <i type="int" name="NPACO">   256</i>
   <i name="APACO">     10.00000000</i>
  </separator>
  <separator name="symmetry" >
   <i type="int" name="ISYM">     2</i>
   <i name="SYMPREC">      0.00001000</i>
  </separator>
  <separator name="dos" >
   <i type="int" name="LORBIT">    11</i>
   <v name="RWIGS">     -1.00000000     -1.00000000     -1.00000000     -1.00000000     -1.00000000     -1.00000000     -1.00000000     -1.00000000     -1.00000000     -1.00000000</v>
   <i type="int" name="NEDOS">   301</i>
   <i name="EMIN">     10.00000000</i>
   <i name="EMAX">    -10.00000000</i>
   <i name="EFERMI">      0.00000000</i>
  </separator>
  <separator name="writing" >
   <i type="int" name="NWRITE">     2</i>
   <i type="logical" name="LWAVE"> F  </i>
   <i type="logical" name="LDOWNSAMPLE"> F  </i>
   <i type="logical" name="LCHARG"> F  </i>
   <i type="logical" name="LPARD"> F  </i>
   <i type="logical" name="LVTOT"> F  </i>
   <i type="logical" name="LVHAR"> F  </i>
   <i type="logical" name="LELF"> F  </i>
   <i type="logical" name="LOPTICS"> F  </i>
   <v name="STM">      0.00000000      0.00000000      0.00000000      0.00000000      0.00000000      0.00000000      0.00000000</v>
  </separator>
  <separator name="performance" >
   <i type="int" name="NPAR">     1</i>
   <i type="int" name="NSIM">     4</i>
   <i type="int" name="NBLK">    -1</i>
   <i type="logical" name="LPLANE"> T  </i>
   <i type="logical" name="LSCALAPACK"> T  </i>
   <i type="logical" name="LSCAAWARE"> F  </i>
   <i type="logical" name="LSCALU"> F  </i>
   <i type="logical" name="LASYNC"> F  </i>
   <i type="logical" name="LORBITALREAL"> F  </i>
  </separator>
  <separator name="miscellaneous" >
   <i type="int" name="IDIOT">     3</i>
   <i type="int" name="PHON_NSTRUCT">    -1</i>
   <i type="logical" name="LMUSIC"> F  </i>
   <v name="POMASS">     63.54600000    107.86800000     63.54600000    107.86800000     63.54600000    107.86800000     63.54600000    107.86800000     12.01100000     16.00000000</v>
   <v name="DARWINR">      0.00000000      0.00000000      0.00000000      0.00000000      0.00000000      0.00000000      0.00000000      0.00000000      0.00000000      0.00000000</v>
   <v name="DARWINV">      1.00000000      1.00000000      1.00000000      1.00000000      1.00000000      1.00000000      1.00000000      1.00000000      1.00000000      1.00000000</v>
   <i type="logical" name="LCORR"> T  </i>
  </separator>
  <i type="logical" name="GGA_COMPAT"> T  </i>
  <i type="logical" name="LBERRY"> F  </i>
  <i type="int" name="ICORELEVEL">     0</i>
  <i type="logical" name="LDAU"> F  </i>
  <i type="int" name="I_CONSTRAINED_M">     0</i>
  <separator name="electronic exchange-correlation" >
   <i type="string" name="GGA    ">RP</i>
   <i type="string" name="XC_C">1</i>
   <i type="int" name="VOSKOWN">     0</i>
   <i type="logical" name="LHFCALC"> F  </i>
   <i type="string" name="PRECFOCK"></i>
   <i type="logical" name="LSYMGRAD"> F  </i>
   <i type="logical" name="LHFONE"> F  </i>
   <i type="logical" name="LRHFCALC"> F  </i>
   <i type="logical" name="LTHOMAS"> F  </i>
   <i type="logical" name="LMODELHF"> F  </i>
   <i type="logical" name="LFOCKACE"> F  </i>
   <i name="ENCUT4O">     -1.00000000</i>
   <i type="int" name="EXXOEP">     0</i>
   <i type="int" name="FOURORBIT">     0</i>
   <i name="AEXX">      0.00000000</i>
   <i name="HFALPHA">      0.00000000</i>
   <i name="MCALPHA">      0.00000000</i>
   <i name="ALDAX">      1.00000000</i>
   <i name="AGGAX">      1.00000000</i>
   <i name="AMGGAX">      1.00000000</i>
   <i name="ALDAC">      1.00000000</i>
   <i name="AGGAC">      1.00000000</i>
   <i name="AMGGAC">      1.00000000</i>
   <i type="int" name="NKREDX">     1</i>
   <i type="int" name="NKREDY">     1</i>
   <i type="int" name="NKREDZ">     1</i>
   <i type="logical" name="SHIFTRED"> F  </i>
   <i type="logical" name="ODDONLY"> F  </i>
   <i type="logical" name="EVENONLY"> F  </i>
   <i type="int" name="LMAXFOCK">     0</i>
   <i type="int" name="NMAXFOCKAE">     0</i>
   <i type="logical" name="LFOCKAEDFT"> F  </i>
   <i name="HFSCREEN">      0.00000000</i>
   <i name="HFSCREENC">      0.00000000</i>
   <i type="int" name="NBANDSGWLOW">     0</i>
  </separator>
  <separator name="vdW DFT" >
   <i type="logical" name="LUSE_VDW"> F  </i>
   <i type="int" name="IVDW_NL">    -1</i>
   <i type="logical" name="LSPIN_VDW"> F  </i>
   <i name="ZAB_VDW">     -0.84910000</i>
   <i name="GAMMA_VDW">      1.39626340</i>
   <i name="ALPHA_VDW">      0.00000000</i>
   <i name="PARAM1">      0.12340000</i>
   <i name="PARAM2">      1.00000000</i>
   <i name="BPARAM">      6.30000000</i>
   <i name="CPARAM">      0.00930000</i>
  </separator>
  <separator name="model GW" >
   <i type="int" name="MODEL_GW">     0</i>
   <i name="MODEL_EPS0">     28.05671142</i>
   <i name="MODEL_ALPHA">      1.00000000</i>
  </separator>
  <separator name="linear response parameters" >
   <i type="logical" name="LEPSILON"> F  </i>
   <i type="logical" name="LRPA"> F  </i>
   <i type="logical" name="LNABLA"> F  </i>
   <i type="logical" name="LVEL"> F  </i>
   <i name="CSHIFT">      0.10000000</i>
   <i name="OMEGAMAX">     -1.00000000</i>
   <i name="DEG_THRESHOLD">      0.00200000</i>
   <i name="RTIME">     -0.10000000</i>
   <i name="WPLASMAI">      0.00000000</i>
   <v name="DFIELD">      0.00000000      0.00000000      0.00000000</v>
   <v name="WPLASMA">      0.00000000      0.00000000      0.00000000      0.00000000      0.00000000      0.00000000      0.00000000      0.00000000      0.00000000</v>
  </separator>
  <separator name="orbital magnetization" >
   <i type="logical" name="NUCIND"> F  </i>
   <v name="MAGPOS">      0.00000000      0.00000000      0.00000000</v>
   <i type="logical" name="LNICSALL"> T  </i>
   <i type="logical" name="ORBITALMAG"> F  </i>
   <i type="logical" name="LMAGBLOCH"> F  </i>
   <i type="logical" name="LCHIMAG"> F  </i>
   <i type="logical" name="LGAUGE"> T  </i>
   <i type="int" name="MAGATOM">     0</i>
   <v name="MAGDIPOL">      0.00000000      0.00000000      0.00000000</v>
   <v name="AVECCONST">      0.00000000      0.00000000      0.00000000</v>
  </separator>
  <separator name="response functions" >
   <i type="logical" name="LALL_IN_ONE"> F  </i>
   <i type="int" name="IALL_IN_ONE">    -1</i>
   <i type="int" name="NBANDS_WAVE">    -1</i>
   <i type="logical" name="LFINITE_TEMPERATURE"> F  </i>
   <i type="logical" name="LADDER"> F  </i>
   <i type="logical" name="LRPAFORCE"> F  </i>
   <i type="logical" name="LFXC"> F  </i>
   <i type="logical" name="LHARTREE"> T  </i>
   <i type="int" name="IBSE">     2</i>
   <v type="int" name="KPOINT">    -1     0     0     0</v>
   <i type="logical" name="LTCTC"> F  </i>
   <i type="logical" name="LTCTE"> F  </i>
   <i type="logical" name="LTETE"> F  </i>
   <i type="logical" name="LTRIPLET"> F  </i>
   <i type="logical" name="LFXCEPS"> F  </i>
   <i type="logical" name="LFXHEG"> F  </i>
   <i type="int" name="NATURALO">     2</i>
   <i type="logical" name="LHOLEGF"> F  </i>
   <i type="logical" name="L2ORDER"> F  </i>
   <i type="logical" name="LDMP1"> F  </i>
   <i type="logical" name="LMP2LT"> F  </i>
   <i type="logical" name="LSMP2LT"> F  </i>
   <i type="logical" name="LGWLF"> F  </i>
   <i name="ENCUTGW">     -1.60000002</i>
   <i name="ENCUTGWSOFT">     -1.60000002</i>
   <i name="ENCUTLF">     -1.00000000</i>
   <i type="logical" name="ESF_SPLINES"> F  </i>
   <i name="ESF_CONV">      0.01000000</i>
   <i type="int" name="ESF_NINTER">    15</i>
   <i type="int" name="LMAXMP2">    -1</i>
   <i name="SCISSOR">      0.00000000</i>
   <i type="int" name="NOMEGA">     0</i>
   <i type="int" name="NOMEGAR">     0</i>
   <i type="int" name="NBANDSGW">    -1</i>
   <i type="int" name="NBANDSO">    -1</i>
   <i type="int" name="NBANDSV">    -1</i>
   <i type="int" name="NELMGW">     1</i>
   <i type="int" name="NELMHF">     1</i>
   <i type="int" name="DIM">     3</i>
   <i type="int" name="IESPILON">     4</i>
   <i type="int" name="ANTIRES">     0</i>
   <i name="OMEGAMAX">    -30.00000000</i>
   <i name="OMEGAMIN">    -30.00000000</i>
   <i name="OMEGATL">   -200.00000000</i>
   <i type="int" name="OMEGAGRID">     0</i>
   <i name="CSHIFT">     -0.10000000</i>
   <i type="logical" name="LSELFENERGY"> F  </i>
   <i type="logical" name="LSPECTRAL"> F  </i>
   <i type="logical" name="LSPECTRALGW"> F  </i>
   <i type="logical" name="LSINGLES"> F  </i>
   <i type="logical" name="LFERMIGW"> F  </i>
   <i type="logical" name="ODDONLYGW"> F  </i>
   <i type="logical" name="EVENONLYGW"> F  </i>
   <i type="int" name="NKREDLFX">     1</i>
   <i type="int" name="NKREDLFY">     1</i>
   <i type="int" name="NKREDLFZ">     1</i>
   <i type="int" name="MAXMEM">  2800</i>
   <i type="int" name="TELESCOPE">     0</i>
   <i type="int" name="NTAUPAR">    -1</i>
   <i type="int" name="NOMEGAPAR">    -1</i>
   <i name="DAMP_NEWTON">      0.80000001</i>
   <i name="LAMBDA">      1.00000000</i>
  </separator>
  <separator name="External order field" >
   <i name="OFIELD_KAPPA">      0.00000000</i>
   <v name="OFIELD_K">      0.00000000      0.00000000      0.00000000</v>
   <i name="OFIELD_Q6_NEAR">      0.00000000</i>
   <i name="OFIELD_Q6_FAR">      0.00000000</i>
   <i name="OFIELD_A">      0.00000000</i>
  </separator>
  <separator name="optional k-points parameters" >
   <i type="int" name="KPOINTS_OPT_MODE">     1</i>
   <i type="logical" name="LKPOINTS_OPT"> F  </i>
  </separator>
 </parameters>
 <atominfo>
  <atoms>      18 </atoms>
  <types>      10 </types>
  <array name="atoms" >
   <dimension dim="1">ion</dimension>
   <field type="string">element</field>
   <field type="int">atomtype</field>
   <set>
    <rc><c>Cu</c><c>   1</c></rc>
    <rc><c>Ag</c><c>   2</c></rc>
    <rc><c>Ag</c><c>   2</c></rc>
    <rc><c>Ag</c><c>   2</c></rc>
    <rc><c>Cu</c><c>   3</c></rc>
    <rc><c>Ag</c><c>   4</c></rc>
    <rc><c>Ag</c><c>   4</c></rc>
    <rc><c>Ag</c><c>   4</c></rc>
    <rc><c>Cu</c><c>   5</c></rc>
    <rc><c>Ag</c><c>   6</c></rc>
    <rc><c>Ag</c><c>   6</c></rc>
    <rc><c>Ag</c><c>   6</c></rc>
    <rc><c>Cu</c><c>   7</c></rc>
    <rc><c>Ag</c><c>   8</c></rc>
    <rc><c>Ag</c><c>   8</c></rc>
    <rc><c>Ag</c><c>   8</c></rc>
    <rc><c>C </c><c>   9</c></rc>
    <rc><c>O </c><c>  10</c></rc>
   </set>
  </array>
  <array name="atomtypes" >
   <dimension dim="1">type</dimension>
   <field type="int">atomspertype</field>
   <field type="string">element</field>
   <field>mass</field>
   <field>valence</field>
   <field type="string">pseudopotential</field>
   <set>
    <rc><c>   1</c><c>Cu</c><c>     63.54600000</c><c>     11.00000000</c><c>  PAW_PBE Cu 22Jun2005                  </c></rc>
    <rc><c>   3</c><c>Ag</c><c>    107.86800000</c><c>     11.00000000</c><c>  PAW_PBE Ag 02Apr2005                  </c></rc>
    <rc><c>   1</c><c>Cu</c><c>     63.54600000</c><c>     11.00000000</c><c>  PAW_PBE Cu 22Jun2005                  </c></rc>
    <rc><c>   3</c><c>Ag</c><c>    107.86800000</c><c>     11.00000000</c><c>  PAW_PBE Ag 02Apr2005                  </c></rc>
    <rc><c>   1</c><c>Cu</c><c>     63.54600000</c><c>     11.00000000</c><c>  PAW_PBE Cu 22Jun2005                  </c></rc>
    <rc><c>   3</c><c>Ag</c><c>    107.86800000</c><c>     11.00000000</c><c>  PAW_PBE Ag 02Apr2005                  </c></rc>
    <rc><c>   1</c><c>Cu</c><c>     63.54600000</c><c>     11.00000000</c><c>  PAW_PBE Cu 22Jun2005                  </c></rc>
    <rc><c>   3</c><c>Ag</c><c>    107.86800000</c><c>     11.00000000</c><c>  PAW_PBE Ag 02Apr2005                  </c></rc>
    <rc><c>   1</c><c>C </c><c>     12.01100000</c><c>      4.00000000</c><c>  PAW_PBE C 08Apr2002                   </c></rc>
    <rc><c>   1</c><c>O </c><c>     16.00000000</c><c>      6.00000000</c><c>  PAW_PBE O 08Apr2002                   </c></rc>
   </set>
  </array>
 </atominfo>
 <structure name="initialpos" >
  <crystal>
   <varray name="basis" >
    <v>       5.61089231       0.00000000       0.00000000 </v>
    <v>       2.80544615       4.85917528       0.00000000 </v>
    <v>       0.00000000       0.00000000      30.87191158 </v>
   </varray>
   <i name="volume">    841.70134257 </i>
   <varray name="rec_basis" >
    <v>       0.17822477      -0.10289812       0.00000000 </v>
    <v>       0.00000000       0.20579624       0.00000000 </v>
    <v>       0.00000000       0.00000000       0.03239190 </v>
   </varray>
  </crystal>
  <varray name="positions" >
   <v>       0.00000000       0.00000000       0.38870285 </v>
   <v>       0.50000000       0.00000000       0.38870285 </v>
   <v>       0.00000000       0.50000000       0.38870285 </v>
   <v>       0.50000000       0.50000000       0.38870285 </v>
   <v>       0.16666667       0.16666667       0.46290095 </v>
   <v>       0.66666667       0.16666667       0.46290095 </v>
   <v>       0.16666667       0.66666667       0.46290095 </v>
   <v>       0.66666667       0.66666667       0.46290095 </v>
   <v>       0.83333333       0.33333333       0.53709905 </v>
   <v>       0.33333333       0.33333333       0.53709905 </v>
   <v>       0.83333333       0.83333333       0.53709905 </v>
   <v>       0.33333333       0.83333333       0.53709905 </v>
   <v>       0.00000000       0.00000000       0.61129715 </v>
   <v>       0.50000000       0.00000000       0.61129715 </v>
   <v>       0.00000000       0.50000000       0.61129715 </v>
   <v>       0.50000000       0.50000000       0.61129715 </v>
   <v>       0.16666667       0.16666667       0.66960258 </v>
   <v>       0.16666667       0.16666667       0.70620543 </v>
  </varray>
  <varray name="selective"  type="logical" >
   <v type="logical" >  F  F  F </v>
   <v type="logical" >  F  F  F </v>
   <v type="logical" >  F  F  F </v>
   <v type="logical" >  F  F  F </v>
   <v type="logical" >  F  F  F </v>
   <v type="logical" >  F  F  F </v>
   <v type="logical" >  F  F  F </v>
   <v type="logical" >  F  F  F </v>
   <v type="logical" >  T  T  T </v>
   <v type="logical" >  T  T  T </v>
   <v type="logical" >  T  T  T </v>
   <v type="logical" >  T  T  T </v>
   <v type="logical" >  T  T  T </v>
   <v type="logical" >  T  T  T </v>
   <v type="logical" >  T  T  T </v>
   <v type="logical" >  T  T  T </v>
   <v type="logical" >  T  T  T </v>
   <v type="logical" >  T  T  T </v>
  </varray>
  <nose>
   <v>      -3.00000000       0.00000000       0.00010000       0.00010000 </v>
  </nose>
 </structure>
 <calculation>
  <scstep>
   <time name="dav">    1.55    1.55</time>
   <time name="total">    1.59    1.59</time>
   <energy>
    <i name="alphaZ">    273.47206255 </i>
    <i name="ewald"> 122162.01432176 </i>
    <i name="hartreedc">-140505.46864848 </i>
    <i name="XCdc">     85.24439058 </i>
    <i name="pawpsdc">  17423.27511948 </i>
    <i name="pawaedc"> -17279.29709987 </i>
    <i name="eentropy">     -0.03716628 </i>
    <i name="bandstr">    693.29191780 </i>
    <i name="atom">  18579.70212963 </i>
    <i name="e_fr_energy">   1432.19702716 </i>
    <i name="e_wo_entrp">   1432.23419345 </i>
    <i name="e_0_energy">   1432.21561030 </i>
   </energy>
  </scstep>
  <scstep>
   <time name="dav">    1.50    1.50</time>
   <time name="total">    1.50    1.50</time>
   <energy>
    <i name="e_fr_energy">    108.61591581 </i>
    <i name="e_wo_entrp">    108.64963261 </i>
    <i name="e_0_energy">    108.63277421 </i>
   </energy>
  </scstep>
  <scstep>
   <time name="dav">    1.82    1.82</time>
   <time name="total">    1.82    1.82</time>
   <energy>
    <i name="e_fr_energy">    -45.12788680 </i>
    <i name="e_wo_entrp">    -45.07762672 </i>
    <i name="e_0_energy">    -45.10275676 </i>
   </energy>
  </scstep>
  <scstep>
   <time name="dav">    2.05    2.06</time>
   <time name="total">    2.05    2.06</time>
   <energy>
    <i name="e_fr_energy">    -55.18812348 </i>
    <i name="e_wo_entrp">    -55.14621034 </i>
    <i name="e_0_energy">    -55.16716691 </i>
   </energy>
  </scstep>
  <scstep>
   <time name="dav">    1.82    1.82</time>
   <time name="total">    1.96    1.96</time>
   <energy>
    <i name="e_fr_energy">    -55.43098940 </i>
    <i name="e_wo_entrp">    -55.38894797 </i>
    <i name="e_0_energy">    -55.40996869 </i>
   </energy>
  </scstep>
  <scstep>
   <time name="dav">    1.98    1.98</time>
   <time name="total">    2.15    2.15</time>
   <energy>
    <i name="e_fr_energy">    -54.72862500 </i>
    <i name="e_wo_entrp">    -54.69763297 </i>
    <i name="e_0_energy">    -54.71312898 </i>
   </energy>
  </scstep>
  <scstep>
   <time name="dav">    1.80    1.80</time>
   <time name="total">    1.96    1.96</time>
   <energy>
    <i name="e_fr_energy">    -50.24640369 </i>
    <i name="e_wo_entrp">    -50.20734982 </i>
    <i name="e_0_energy">    -50.22687676 </i>
   </energy>
  </scstep>
  <scstep>
   <time name="dav">    2.12    2.13</time>
   <time name="total">    2.29    2.29</time>
   <energy>
    <i name="e_fr_energy">    -51.93419707 </i>
    <i name="e_wo_entrp">    -51.90538710 </i>
    <i name="e_0_energy">    -51.91979209 </i>
   </energy>
  </scstep>
  <scstep>
   <time name="dav">    2.17    2.18</time>
   <time name="total">    2.34    2.34</time>
   <energy>
    <i name="e_fr_energy">    -49.84407498 </i>
    <i name="e_wo_entrp">    -49.80177035 </i>
    <i name="e_0_energy">    -49.82292267 </i>
   </energy>
  </scstep>
  <scstep>
   <time name="dav">    1.94    1.94</time>
   <time name="total">    2.10    2.11</time>
   <energy>
    <i name="e_fr_energy">    -49.66194051 </i>
    <i name="e_wo_entrp">    -49.62419091 </i>
    <i name="e_0_energy">    -49.64306571 </i>
   </energy>
  </scstep>
  <scstep>
   <time name="dav">    1.90    1.90</time>
   <time name="total">    2.06    2.06</time>
   <energy>
    <i name="e_fr_energy">    -49.49932715 </i>
    <i name="e_wo_entrp">    -49.45797274 </i>
    <i name="e_0_energy">    -49.47864995 </i>
   </energy>
  </scstep>
  <scstep>
   <time name="dav">    2.06    2.06</time>
   <time name="total">    2.22    2.23</time>
   <energy>
    <i name="e_fr_energy">    -49.46944943 </i>
    <i name="e_wo_entrp">    -49.42520243 </i>
    <i name="e_0_energy">    -49.44732593 </i>
   </energy>
  </scstep>
  <scstep>
   <time name="dav">    2.11    2.11</time>
   <time name="total">    2.27    2.28</time>
   <energy>
    <i name="e_fr_energy">    -49.46823527 </i>
    <i name="e_wo_entrp">    -49.42422997 </i>
    <i name="e_0_energy">    -49.44623262 </i>
   </energy>
  </scstep>
  <scstep>
   <time name="dav">    1.99    2.00</time>
   <time name="total">    2.16    2.17</time>
   <energy>
    <i name="e_fr_energy">    -49.46569169 </i>
    <i name="e_wo_entrp">    -49.42236079 </i>
    <i name="e_0_energy">    -49.44402624 </i>
   </energy>
  </scstep>
  <scstep>
   <time name="dav">    1.97    1.98</time>
   <time name="total">    2.14    2.14</time>
   <energy>
    <i name="e_fr_energy">    -49.46527072 </i>
    <i name="e_wo_entrp">    -49.42202387 </i>
    <i name="e_0_energy">    -49.44364730 </i>
   </energy>
  </scstep>
  <scstep>
   <time name="dav">    2.13    2.13</time>
   <time name="total">    2.30    2.30</time>
   <energy>
    <i name="e_fr_energy">    -49.46486712 </i>
    <i name="e_wo_entrp">    -49.42152281 </i>
    <i name="e_0_energy">    -49.44319496 </i>
   </energy>
  </scstep>
  <scstep>
   <time name="dav">    2.01    2.01</time>
   <time name="total">    2.18    2.18</time>
   <energy>
    <i name="e_fr_energy">    -49.46483181 </i>
    <i name="e_wo_entrp">    -49.42137009 </i>
    <i name="e_0_energy">    -49.44310095 </i>
   </energy>
  </scstep>
  <scstep>
   <time name="dav">    1.92    1.93</time>
   <time name="total">    2.09    2.09</time>
   <energy>
    <i name="e_fr_energy">    -49.46495766 </i>
    <i name="e_wo_entrp">    -49.42152385 </i>
    <i name="e_0_energy">    -49.44324075 </i>
   </energy>
  </scstep>
  <scstep>
   <time name="dav">    1.92    1.92</time>
   <time name="total">    2.08    2.09</time>
   <energy>
    <i name="e_fr_energy">    -49.46505903 </i>
    <i name="e_wo_entrp">    -49.42165329 </i>
    <i name="e_0_energy">    -49.44335616 </i>
   </energy>
  </scstep>
  <scstep>
   <time name="dav">    1.73    1.74</time>
   <time name="total">    1.90    1.91</time>
   <energy>
    <i name="e_fr_energy">    -49.46517392 </i>
    <i name="e_wo_entrp">    -49.42177674 </i>
    <i name="e_0_energy">    -49.44347533 </i>
   </energy>
  </scstep>
  <scstep>
   <time name="dav">    1.53    1.53</time>
   <time name="total">    1.69    1.70</time>
   <energy>
    <i name="e_fr_energy">    -49.46528440 </i>
    <i name="e_wo_entrp">    -49.42189280 </i>
    <i name="e_0_energy">    -49.44358860 </i>
   </energy>
  </scstep>
  <scstep>
   <time name="dav">    1.22    1.23</time>
   <time name="total">    1.39    1.39</time>
   <energy>
    <i name="e_fr_energy">    -49.46532892 </i>
    <i name="e_wo_entrp">    -49.42193683 </i>
    <i name="e_0_energy">    -49.44363288 </i>
   </energy>
  </scstep>
  <scstep>
   <time name="dav">    1.22    1.22</time>
   <time name="total">    1.39    1.39</time>
   <energy>
    <i name="e_fr_energy">    -49.46536635 </i>
    <i name="e_wo_entrp">    -49.42197337 </i>
    <i name="e_0_energy">    -49.44366986 </i>
   </energy>
  </scstep>
  <scstep>
   <time name="dav">    1.16    1.16</time>
   <time name="total">    1.33    1.33</time>
   <energy>
    <i name="e_fr_energy">    -49.46538275 </i>
    <i name="e_wo_entrp">    -49.42198824 </i>
    <i name="e_0_energy">    -49.44368549 </i>
   </energy>
  </scstep>
  <scstep>
   <time name="dav">    1.10    1.11</time>
   <time name="total">    1.27    1.28</time>
   <energy>
    <i name="e_fr_energy">    -49.46539601 </i>
    <i name="e_wo_entrp">    -49.42200423 </i>
    <i name="e_0_energy">    -49.44370012 </i>
   </energy>
  </scstep>
  <scstep>
   <time name="dav">    1.11    1.12</time>
   <time name="total">    1.28    1.29</time>
   <energy>
    <i name="e_fr_energy">    -49.46540341 </i>
    <i name="e_wo_entrp">    -49.42200921 </i>
    <i name="e_0_energy">    -49.44370631 </i>
   </energy>
  </scstep>
  <scstep>
   <time name="dav">    1.08    1.08</time>
   <time name="total">    1.25    1.25</time>
   <energy>
    <i name="e_fr_energy">    -49.46540811 </i>
    <i name="e_wo_entrp">    -49.42201565 </i>
    <i name="e_0_energy">    -49.44371188 </i>
   </energy>
  </scstep>
  <scstep>
   <time name="dav">    1.08    1.08</time>
   <time name="total">    1.25    1.26</time>
   <energy>
    <i name="e_fr_energy">    -49.46541074 </i>
    <i name="e_wo_entrp">    -49.42201719 </i>
    <i name="e_0_energy">    -49.44371396 </i>
   </energy>
  </scstep>
  <scstep>
   <time name="dav">    1.05    1.05</time>
   <time name="total">    1.23    1.23</time>
   <energy>
    <i name="e_fr_energy">    -49.46541176 </i>
    <i name="e_wo_entrp">    -49.42201925 </i>
    <i name="e_0_energy">    -49.44371550 </i>
   </energy>
  </scstep>
  <scstep>
   <time name="dav">    1.06    1.06</time>
   <time name="total">    1.08    1.09</time>
   <energy>
    <i name="alphaZ">    273.47206255 </i>
    <i name="ewald"> 122162.01432176 </i>
    <i name="hartreedc">-140379.82076587 </i>
    <i name="XCdc">     78.84191291 </i>
    <i name="pawpsdc">  19712.56413485 </i>
    <i name="pawaedc"> -19608.62009305 </i>
    <i name="eentropy">     -0.04339263 </i>
    <i name="bandstr">   -867.57572225 </i>
    <i name="atom">  18579.70212963 </i>
    <i name="e_fr_energy">    -49.46541209 </i>
    <i name="e_wo_entrp">    -49.42201946 </i>
    <i name="e_0_energy">    -49.44371577 </i>
   </energy>
  </scstep>
  <structure>
   <crystal>
    <varray name="basis" >
     <v>       5.61089231       0.00000000       0.00000000 </v>
     <v>       2.80544615       4.85917528       0.00000000 </v>
     <v>       0.00000000       0.00000000      30.87191158 </v>
    </varray>
    <i name="volume">    841.70134257 </i>
    <varray name="rec_basis" >
     <v>       0.17822477      -0.10289812       0.00000000 </v>
     <v>       0.00000000       0.20579624       0.00000000 </v>
     <v>       0.00000000       0.00000000       0.03239190 </v>
    </varray>
   </crystal>
   <varray name="positions" >
    <v>       0.00000000       0.00000000       0.38870285 </v>
    <v>       0.50000000       0.00000000       0.38870285 </v>
    <v>       0.00000000       0.50000000       0.38870285 </v>
    <v>       0.50000000       0.50000000       0.38870285 </v>
    <v>       0.16666667       0.16666667       0.46290095 </v>
    <v>       0.66666667       0.16666667       0.46290095 </v>
    <v>       0.16666667       0.66666667       0.46290095 </v>
    <v>       0.66666667       0.66666667       0.46290095 </v>
    <v>       0.83333333       0.33333333       0.53709905 </v>
    <v>       0.33333333       0.33333333       0.53709905 </v>
    <v>       0.83333333       0.83333333       0.53709905 </v>
    <v>       0.33333333       0.83333333       0.53709905 </v>
    <v>       0.00000000       0.00000000       0.61129715 </v>
    <v>       0.50000000       0.00000000       0.61129715 </v>
    <v>       0.00000000       0.50000000       0.61129715 </v>
    <v>       0.50000000       0.50000000       0.61129715 </v>
    <v>       0.16666667       0.16666667       0.66960258 </v>
    <v>       0.16666667       0.16666667       0.70620543 </v>
   </varray>
  </structure>
  <varray name="forces" >
   <v>       0.17045048       0.09419972       0.18277154 </v>
   <v>      -0.23214727       0.13043852      -0.61198065 </v>
   <v>      -0.00121585      -0.26566853      -0.61265478 </v>
   <v>      -0.00409436       0.00374138      -0.91712207 </v>
   <v>      -0.22090840       0.00045927       0.18595727 </v>
   <v>       0.36950057       0.01221730       0.10956130 </v>
   <v>       0.01182873       0.20738077      -0.20249651 </v>
   <v>      -0.01061826      -0.22110158       0.40568571 </v>
   <v>       0.12905834      -0.20064264      -0.16345731 </v>
   <v>      -0.20630377      -0.12057211      -0.47447114 </v>
   <v>       0.16955388       0.10050838       0.36631867 </v>
   <v>      -0.18172175       0.34901613      -0.15300931 </v>
   <v>       0.05286049       0.15679412       0.11457509 </v>
   <v>       0.20732025      -0.10843347       0.90941012 </v>
   <v>      -0.16993314       0.13437792       0.60652088 </v>
   <v>       0.19316282      -0.10164303       0.42740474 </v>
   <v>      -0.28769707      -0.18705142      -4.56933895 </v>
   <v>       0.01090431       0.01597929       4.39632540 </v>
  </varray>
  <varray name="stress" >
   <v>      22.67227445      -0.34916489      -0.96007253 </v>
   <v>      -0.34916506      23.69451370      -0.61211769 </v>
   <v>      -0.96007234      -0.61211782      30.64394085 </v>
  </varray>
  <energy>
   <i name="e_fr_energy">    -49.46541209 </i>
   <i name="e_wo_entrp">    -49.42201946 </i>
   <i name="e_0_energy">    -49.44371577 </i>
  </energy>
  <time name="totalsc">   56.96   57.09</time>
 </calculation>
 <calculation>
  <scstep>
   <time name="dav">    1.43    1.43</time>
   <time name="total">    1.59    1.59</time>
   <energy>
    <i name="alphaZ">    273.47206255 </i>
    <i name="ewald"> 121688.65225872 </i>
    <i name="hartreedc">-139928.84392222 </i>
    <i name="XCdc">     77.61960207 </i>
    <i name="pawpsdc">  19712.56840914 </i>
    <i name="pawaedc"> -19608.62444826 </i>
    <i name="eentropy">     -0.03695704 </i>
    <i name="bandstr">   -841.33284151 </i>
    <i name="atom">  18579.70212963 </i>
    <i name="e_fr_energy">    -46.82370692 </i>
    <i name="e_wo_entrp">    -46.78674988 </i>
    <i name="e_0_energy">    -46.80522840 </i>
   </energy>
  </scstep>
  <scstep>
   <time name="dav">    1.92    1.92</time>
   <time name="total">    2.08    2.09</time>
   <energy>
    <i name="e_fr_energy">    -50.27884053 </i>
    <i name="e_wo_entrp">    -50.26414167 </i>
    <i name="e_0_energy">    -50.27149110 </i>
   </energy>
  </scstep>
  <scstep>
   <time name="dav">    2.08    2.08</time>
   <time name="total">    2.24    2.25</time>
   <energy>
    <i name="e_fr_energy">    -46.96562593 </i>
    <i name="e_wo_entrp">    -46.92538225 </i>
    <i name="e_0_energy">    -46.94550409 </i>
   </energy>
  </scstep>
  <scstep>
   <time name="dav">    2.21    2.21</time>
   <time name="total">    2.37    2.38</time>
   <energy>
    <i name="e_fr_energy">    -46.83847600 </i>
    <i name="e_wo_entrp">    -46.79105439 </i>
    <i name="e_0_energy">    -46.81476520 </i>
   </energy>
  </scstep>
  <scstep>
   <time name="dav">    1.98    1.99</time>
   <time name="total">    2.15    2.15</time>
   <energy>
    <i name="e_fr_energy">    -46.79592300 </i>
    <i name="e_wo_entrp">    -46.74950010 </i>
    <i name="e_0_energy">    -46.77271155 </i>
   </energy>
  </scstep>
  <scstep>
   <time name="dav">    2.24    2.25</time>
   <time name="total">    2.41    2.41</time>
   <energy>
    <i name="e_fr_energy">    -46.78746898 </i>
    <i name="e_wo_entrp">    -46.73979980 </i>
    <i name="e_0_energy">    -46.76363439 </i>
   </energy>
  </scstep>
  <scstep>
   <time name="dav">    1.94    1.95</time>
   <time name="total">    2.11    2.11</time>
   <energy>
    <i name="e_fr_energy">    -46.78639158 </i>
    <i name="e_wo_entrp">    -46.73992735 </i>
    <i name="e_0_energy">    -46.76315946 </i>
   </energy>
  </scstep>
  <scstep>
   <time name="dav">    1.93    1.93</time>
   <time name="total">    2.09    2.10</time>
   <energy>
    <i name="e_fr_energy">    -46.78778752 </i>
    <i name="e_wo_entrp">    -46.74147364 </i>
    <i name="e_0_energy">    -46.76463058 </i>
   </energy>
  </scstep>
  <scstep>
   <time name="dav">    2.04    2.04</time>
   <time name="total">    2.20    2.21</time>
   <energy>
    <i name="e_fr_energy">    -46.78641838 </i>
    <i name="e_wo_entrp">    -46.73972696 </i>
    <i name="e_0_energy">    -46.76307267 </i>
   </energy>
  </scstep>
  <scstep>
   <time name="dav">    2.03    2.03</time>
   <time name="total">    2.19    2.19</time>
   <energy>
    <i name="e_fr_energy">    -46.78753487 </i>
    <i name="e_wo_entrp">    -46.74079379 </i>
    <i name="e_0_energy">    -46.76416433 </i>
   </energy>
  </scstep>
  <scstep>
   <time name="dav">    1.93    1.94</time>
   <time name="total">    2.10    2.10</time>
   <energy>
    <i name="e_fr_energy">    -46.78911274 </i>
    <i name="e_wo_entrp">    -46.74233387 </i>
    <i name="e_0_energy">    -46.76572331 </i>
   </energy>
  </scstep>
  <scstep>
   <time name="dav">    1.98    1.98</time>
   <time name="total">    2.14    2.15</time>
   <energy>
    <i name="e_fr_energy">    -46.78980884 </i>
    <i name="e_wo_entrp">    -46.74306962 </i>
    <i name="e_0_energy">    -46.76643923 </i>
   </energy>
  </scstep>
  <scstep>
   <time name="dav">    1.87    1.88</time>
   <time name="total">    2.04    2.04</time>
   <energy>
    <i name="e_fr_energy">    -46.79054847 </i>
    <i name="e_wo_entrp">    -46.74383540 </i>
    <i name="e_0_energy">    -46.76719194 </i>
   </energy>
  </scstep>
  <scstep>
   <time name="dav">    1.61    1.61</time>
   <time name="total">    1.78    1.78</time>
   <energy>
    <i name="e_fr_energy">    -46.79127936 </i>
    <i name="e_wo_entrp">    -46.74454895 </i>
    <i name="e_0_energy">    -46.76791415 </i>
   </energy>
  </scstep>
  <scstep>
   <time name="dav">    1.78    1.79</time>
   <time name="total">    1.95    1.95</time>
   <energy>
    <i name="e_fr_energy">    -46.79183405 </i>
    <i name="e_wo_entrp">    -46.74507521 </i>
    <i name="e_0_energy">    -46.76845463 </i>
   </energy>
  </scstep>
  <scstep>
   <time name="dav">    1.88    1.88</time>
   <time name="total">    2.05    2.05</time>
   <energy>
    <i name="e_fr_energy">    -46.79199820 </i>
    <i name="e_wo_entrp">    -46.74526593 </i>
    <i name="e_0_energy">    -46.76863206 </i>
   </energy>
  </scstep>
  <scstep>
   <time name="dav">    1.56    1.56</time>
   <time name="total">    1.73    1.73</time>
   <energy>
    <i name="e_fr_energy">    -46.79215717 </i>
    <i name="e_wo_entrp">    -46.74542893 </i>
    <i name="e_0_energy">    -46.76879305 </i>
   </energy>
  </scstep>
  <scstep>
   <time name="dav">    1.41    1.41</time>
   <time name="total">    1.58    1.58</time>
   <energy>
    <i name="e_fr_energy">    -46.79222294 </i>
    <i name="e_wo_entrp">    -46.74548258 </i>
    <i name="e_0_energy">    -46.76885276 </i>
   </energy>
  </scstep>
  <scstep>
   <time name="dav">    1.60    1.60</time>
   <time name="total">    1.77    1.77</time>
   <energy>
    <i name="e_fr_energy">    -46.79228952 </i>
    <i name="e_wo_entrp">    -46.74556118 </i>
    <i name="e_0_energy">    -46.76892535 </i>
   </energy>
  </scstep>
  <scstep>
   <time name="dav">    1.21    1.21</time>
   <time name="total">    1.38    1.38</time>
   <energy>
    <i name="e_fr_energy">    -46.79232154 </i>
    <i name="e_wo_entrp">    -46.74558887 </i>
    <i name="e_0_energy">    -46.76895521 </i>
   </energy>
  </scstep>
  <scstep>
   <time name="dav">    1.21    1.22</time>
   <time name="total">    1.38    1.39</time>
   <energy>
    <i name="e_fr_energy">    -46.79234299 </i>
    <i name="e_wo_entrp">    -46.74560964 </i>
    <i name="e_0_energy">    -46.76897631 </i>
   </energy>
  </scstep>
  <scstep>
   <time name="dav">    1.11    1.11</time>
   <time name="total">    1.28    1.28</time>
   <energy>
    <i name="e_fr_energy">    -46.79234804 </i>
    <i name="e_wo_entrp">    -46.74561470 </i>
    <i name="e_0_energy">    -46.76898137 </i>
   </energy>
  </scstep>
  <scstep>
   <time name="dav">    1.04    1.04</time>
   <time name="total">    1.21    1.21</time>
   <energy>
    <i name="e_fr_energy">    -46.79235273 </i>
    <i name="e_wo_entrp">    -46.74561903 </i>
    <i name="e_0_energy">    -46.76898588 </i>
   </energy>
  </scstep>
  <scstep>
   <time name="dav">    1.06    1.06</time>
   <time name="total">    1.23    1.24</time>
   <energy>
    <i name="e_fr_energy">    -46.79235526 </i>
    <i name="e_wo_entrp">    -46.74562195 </i>
    <i name="e_0_energy">    -46.76898860 </i>
   </energy>
  </scstep>
  <scstep>
   <time name="dav">    1.07    1.07</time>
   <time name="total">    1.24    1.24</time>
   <energy>
    <i name="e_fr_energy">    -46.79235661 </i>
    <i name="e_wo_entrp">    -46.74562362 </i>
    <i name="e_0_energy">    -46.76899011 </i>
   </energy>
  </scstep>
  <scstep>
   <time name="dav">    1.03    1.03</time>
   <time name="total">    1.06    1.06</time>
   <energy>
    <i name="alphaZ">    273.47206255 </i>
    <i name="ewald"> 121688.65225872 </i>
    <i name="hartreedc">-139792.53045652 </i>
    <i name="XCdc">     76.84460877 </i>
    <i name="pawpsdc">  19367.08742668 </i>
    <i name="pawaedc"> -19263.19614523 </i>
    <i name="eentropy">     -0.04673318 </i>
    <i name="bandstr">   -976.77750860 </i>
    <i name="atom">  18579.70212963 </i>
    <i name="e_fr_energy">    -46.79235717 </i>
    <i name="e_wo_entrp">    -46.74562399 </i>
    <i name="e_0_energy">    -46.76899058 </i>
   </energy>
  </scstep>
  <structure>
   <crystal>
    <varray name="basis" >
     <v>       5.61089231       0.00000000       0.00000000 </v>
     <v>       2.80544615       4.85917528       0.00000000 </v>
     <v>       0.00000000       0.00000000      30.87191158 </v>
    </varray>
    <i name="volume">    841.70134257 </i>
    <varray name="rec_basis" >
     <v>       0.17822477      -0.10289812       0.00000000 </v>
     <v>       0.00000000       0.20579624       0.00000000 </v>
     <v>       0.00000000       0.00000000       0.03239190 </v>
    </varray>
   </crystal>
   <varray name="positions" >
    <v>       0.00000000       0.00000000       0.38870285 </v>
    <v>       0.50000000       0.00000000       0.38870285 </v>
    <v>       0.00000000       0.50000000       0.38870285 </v>
    <v>       0.50000000       0.50000000       0.38870285 </v>
    <v>       0.16666667       0.16666667       0.46290095 </v>
    <v>       0.66666667       0.16666667       0.46290095 </v>
    <v>       0.16666667       0.66666667       0.46290095 </v>
    <v>       0.66666667       0.66666667       0.46290095 </v>
    <v>       0.83543899       0.33134132       0.53684362 </v>
    <v>       0.33215806       0.33213627       0.53635761 </v>
    <v>       0.83429223       0.83433120       0.53767149 </v>
    <v>       0.33003834       0.83679842       0.53685995 </v>
    <v>       0.99967616       0.00155668       0.61147619 </v>
    <v>       0.50232082       0.99892346       0.61271826 </v>
    <v>       0.99787185       0.50133413       0.61224494 </v>
    <v>       0.50216538       0.49899087       0.61196504 </v>
    <v>       0.16512157       0.16480959       0.66246220 </v>
    <v>       0.16668110       0.16682531       0.71307544 </v>
   </varray>
  </structure>
  <varray name="forces" >
   <v>       0.14607666       0.08077295       0.19510792 </v>
   <v>      -0.21372777       0.12013128      -0.60370307 </v>
   <v>      -0.00141677      -0.24526570      -0.60197995 </v>
   <v>      -0.00228998       0.00462044      -0.90470287 </v>
   <v>      -0.22898056       0.00203531       0.15792253 </v>
   <v>       0.38656711      -0.02426343       0.07045838 </v>
   <v>      -0.01463610       0.23618642      -0.24737973 </v>
   <v>       0.00944868      -0.20592401       0.43481127 </v>
   <v>       0.04226940      -0.07689534      -0.11768513 </v>
   <v>      -0.10109727      -0.03233721      -0.12885907 </v>
   <v>       0.04818758       0.06518998       0.45909177 </v>
   <v>      -0.06117035       0.14427007       0.00115857 </v>
   <v>       0.33475540       0.26700179       0.53653589 </v>
   <v>       0.13676638      -0.00682849       0.83924091 </v>
   <v>       0.00846554       0.04844054       0.62452613 </v>
   <v>       0.05141006      -0.06804166       0.29979582 </v>
   <v>      -0.46139384      -0.26101687       8.59279287 </v>
   <v>      -0.07923417      -0.04807608      -9.60713224 </v>
  </varray>
  <varray name="stress" >
   <v>      21.71375591      -1.01142740      -1.93414762 </v>
   <v>      -1.01142731      23.30121131      -1.08435569 </v>
   <v>      -1.93414766      -1.08435566     -12.24903085 </v>
  </varray>
  <energy>
   <i name="e_fr_energy">    -46.79235717 </i>
   <i name="e_wo_entrp">    -46.74562399 </i>
   <i name="e_0_energy">    -46.76899058 </i>
  </energy>
  <time name="totalsc">   49.97   50.09</time>
 </calculation>
 <calculation>
  <scstep>
   <time name="dav">    1.43    1.43</time>
   <time name="total">    1.59    1.60</time>
   <energy>
    <i name="alphaZ">    273.47206255 </i>
    <i name="ewald"> 121988.95848784 </i>
    <i name="hartreedc">-140081.39380180 </i>
    <i name="XCdc">     77.43939320 </i>
    <i name="pawpsdc">  19367.08855191 </i>
    <i name="pawaedc"> -19263.19732700 </i>
    <i name="eentropy">     -0.04166604 </i>
    <i name="bandstr">   -990.50458301 </i>
    <i name="atom">  18579.70212963 </i>
    <i name="e_fr_energy">    -48.47675272 </i>
    <i name="e_wo_entrp">    -48.43508668 </i>
    <i name="e_0_energy">    -48.45591970 </i>
   </energy>
  </scstep>
  <scstep>
   <time name="dav">    2.01    2.01</time>
   <time name="total">    2.17    2.17</time>
   <energy>
    <i name="e_fr_energy">    -49.76694941 </i>
    <i name="e_wo_entrp">    -49.73496719 </i>
    <i name="e_0_energy">    -49.75095830 </i>
   </energy>
  </scstep>
  <scstep>
   <time name="dav">    2.10    2.11</time>
   <time name="total">    2.27    2.27</time>
   <energy>
    <i name="e_fr_energy">    -49.52002956 </i>
    <i name="e_wo_entrp">    -49.48395769 </i>
    <i name="e_0_energy">    -49.50199363 </i>
   </energy>
  </scstep>
  <scstep>
   <time name="dav">    2.01    2.02</time>
   <time name="total">    2.18    2.18</time>
   <energy>
    <i name="e_fr_energy">    -49.26732509 </i>
    <i name="e_wo_entrp">    -49.22345263 </i>
    <i name="e_0_energy">    -49.24538886 </i>
   </energy>
  </scstep>
  <scstep>
   <time name="dav">    2.06    2.06</time>
   <time name="total">    2.22    2.23</time>
   <energy>
    <i name="e_fr_energy">    -49.22223933 </i>
    <i name="e_wo_entrp">    -49.17666027 </i>
    <i name="e_0_energy">    -49.19944980 </i>
   </energy>
  </scstep>
  <scstep>
   <time name="dav">    1.96    1.97</time>
   <time name="total">    2.13    2.13</time>
   <energy>
    <i name="e_fr_energy">    -49.20001583 </i>
    <i name="e_wo_entrp">    -49.15602320 </i>
    <i name="e_0_energy">    -49.17801951 </i>
   </energy>
  </scstep>
  <scstep>
   <time name="dav">    1.91    1.91</time>
   <time name="total">    2.07    2.08</time>
   <energy>
    <i name="e_fr_energy">    -49.19167378 </i>
    <i name="e_wo_entrp">    -49.14682626 </i>
    <i name="e_0_energy">    -49.16925002 </i>
   </energy>
  </scstep>
  <scstep>
   <time name="dav">    2.07    2.07</time>
   <time name="total">    2.23    2.24</time>
   <energy>
    <i name="e_fr_energy">    -49.18860378 </i>
    <i name="e_wo_entrp">    -49.14401301 </i>
    <i name="e_0_energy">    -49.16630839 </i>
   </energy>
  </scstep>
  <scstep>
   <time name="dav">    2.02    2.03</time>
   <time name="total">    2.19    2.19</time>
   <energy>
    <i name="e_fr_energy">    -49.18814293 </i>
    <i name="e_wo_entrp">    -49.14366444 </i>
    <i name="e_0_energy">    -49.16590369 </i>
   </energy>
  </scstep>
  <scstep>
   <time name="dav">    1.95    1.95</time>
   <time name="total">    2.11    2.12</time>
   <energy>
    <i name="e_fr_energy">    -49.18766046 </i>
    <i name="e_wo_entrp">    -49.14318848 </i>
    <i name="e_0_energy">    -49.16542447 </i>
   </energy>
  </scstep>
  <scstep>
   <time name="dav">    1.90    1.90</time>
   <time name="total">    2.06    2.07</time>
   <energy>
    <i name="e_fr_energy">    -49.18751724 </i>
    <i name="e_wo_entrp">    -49.14299228 </i>
    <i name="e_0_energy">    -49.16525476 </i>
   </energy>
  </scstep>
  <scstep>
   <time name="dav">    1.87    1.87</time>
   <time name="total">    2.03    2.03</time>
   <energy>
    <i name="e_fr_energy">    -49.18751525 </i>
    <i name="e_wo_entrp">    -49.14302539 </i>
    <i name="e_0_energy">    -49.16527032 </i>
   </energy>
  </scstep>
  <scstep>
   <time name="dav">    1.73    1.73</time>
   <time name="total">    1.90    1.90</time>
   <energy>
    <i name="e_fr_energy">    -49.18770182 </i>
    <i name="e_wo_entrp">    -49.14322026 </i>
    <i name="e_0_energy">    -49.16546104 </i>
   </energy>
  </scstep>
  <scstep>
   <time name="dav">    1.73    1.73</time>
   <time name="total">    1.89    1.90</time>
   <energy>
    <i name="e_fr_energy">    -49.18810816 </i>
    <i name="e_wo_entrp">    -49.14361564 </i>
    <i name="e_0_energy">    -49.16586190 </i>
   </energy>
  </scstep>
  <scstep>
   <time name="dav">    1.81    1.81</time>
   <time name="total">    1.98    1.98</time>
   <energy>
    <i name="e_fr_energy">    -49.18836160 </i>
    <i name="e_wo_entrp">    -49.14387943 </i>
    <i name="e_0_energy">    -49.16612051 </i>
   </energy>
  </scstep>
  <scstep>
   <time name="dav">    1.70    1.71</time>
   <time name="total">    1.87    1.87</time>
   <energy>
    <i name="e_fr_energy">    -49.18860715 </i>
    <i name="e_wo_entrp">    -49.14411848 </i>
    <i name="e_0_energy">    -49.16636282 </i>
   </energy>
  </scstep>
  <scstep>
   <time name="dav">    1.47    1.48</time>
   <time name="total">    1.64    1.64</time>
   <energy>
    <i name="e_fr_energy">    -49.18875395 </i>
    <i name="e_wo_entrp">    -49.14426911 </i>
    <i name="e_0_energy">    -49.16651153 </i>
   </energy>
  </scstep>
  <scstep>
   <time name="dav">    1.35    1.36</time>
   <time name="total">    1.52    1.52</time>
   <energy>
    <i name="e_fr_energy">    -49.18885424 </i>
    <i name="e_wo_entrp">    -49.14436997 </i>
    <i name="e_0_energy">    -49.16661211 </i>
   </energy>
  </scstep>
  <scstep>
   <time name="dav">    1.21    1.21</time>
   <time name="total">    1.37    1.38</time>
   <energy>
    <i name="e_fr_energy">    -49.18888878 </i>
    <i name="e_wo_entrp">    -49.14440200 </i>
    <i name="e_0_energy">    -49.16664539 </i>
   </energy>
  </scstep>
  <scstep>
   <time name="dav">    1.15    1.16</time>
   <time name="total">    1.32    1.33</time>
   <energy>
    <i name="e_fr_energy">    -49.18892399 </i>
    <i name="e_wo_entrp">    -49.14443748 </i>
    <i name="e_0_energy">    -49.16668073 </i>
   </energy>
  </scstep>
  <scstep>
   <time name="dav">    1.13    1.13</time>
   <time name="total">    1.30    1.30</time>
   <energy>
    <i name="e_fr_energy">    -49.18893196 </i>
    <i name="e_wo_entrp">    -49.14444450 </i>
    <i name="e_0_energy">    -49.16668823 </i>
   </energy>
  </scstep>
  <scstep>
   <time name="dav">    1.05    1.05</time>
   <time name="total">    1.22    1.22</time>
   <energy>
    <i name="e_fr_energy">    -49.18893582 </i>
    <i name="e_wo_entrp">    -49.14444920 </i>
    <i name="e_0_energy">    -49.16669251 </i>
   </energy>
  </scstep>
  <scstep>
   <time name="dav">    1.02    1.03</time>
   <time name="total">    1.19    1.20</time>
   <energy>
    <i name="e_fr_energy">    -49.18893900 </i>
    <i name="e_wo_entrp">    -49.14445227 </i>
    <i name="e_0_energy">    -49.16669563 </i>
   </energy>
  </scstep>
  <scstep>
   <time name="dav">    1.04    1.05</time>
   <time name="total">    1.22    1.22</time>
   <energy>
    <i name="e_fr_energy">    -49.18894008 </i>
    <i name="e_wo_entrp">    -49.14445337 </i>
    <i name="e_0_energy">    -49.16669672 </i>
   </energy>
  </scstep>
  <scstep>
   <time name="dav">    0.98    0.99</time>
   <time name="total">    1.01    1.01</time>
   <energy>
    <i name="alphaZ">    273.47206255 </i>
    <i name="ewald"> 121988.95848784 </i>
    <i name="hartreedc">-140161.40634298 </i>
    <i name="XCdc">     77.92017122 </i>
    <i name="pawpsdc">  19507.02229402 </i>
    <i name="pawaedc"> -19402.99085233 </i>
    <i name="eentropy">     -0.04448671 </i>
    <i name="bandstr">   -911.82240385 </i>
    <i name="atom">  18579.70212963 </i>
    <i name="e_fr_energy">    -49.18894060 </i>
    <i name="e_wo_entrp">    -49.14445390 </i>
    <i name="e_0_energy">    -49.16669725 </i>
   </energy>
  </scstep>
  <structure>
   <crystal>
    <varray name="basis" >
     <v>       5.61089231       0.00000000       0.00000000 </v>
     <v>       2.80544615       4.85917528       0.00000000 </v>
     <v>       0.00000000       0.00000000      30.87191158 </v>
    </varray>
    <i name="volume">    841.70134257 </i>
    <varray name="rec_basis" >
     <v>       0.17822477      -0.10289812       0.00000000 </v>
     <v>       0.00000000       0.20579624       0.00000000 </v>
     <v>       0.00000000       0.00000000       0.03239190 </v>
    </varray>
   </crystal>
   <varray name="positions" >
    <v>       0.00000000       0.00000000       0.38870285 </v>
    <v>       0.50000000       0.00000000       0.38870285 </v>
    <v>       0.00000000       0.50000000       0.38870285 </v>
    <v>       0.50000000       0.50000000       0.38870285 </v>
    <v>       0.16666667       0.16666667       0.46290095 </v>
    <v>       0.66666667       0.16666667       0.46290095 </v>
    <v>       0.16666667       0.66666667       0.46290095 </v>
    <v>       0.66666667       0.66666667       0.46290095 </v>
    <v>       0.83406804       0.33263827       0.53700992 </v>
    <v>       0.33292325       0.33291565       0.53684034 </v>
    <v>       0.83366792       0.83368151       0.53729879 </v>
    <v>       0.33218363       0.83454238       0.53701562 </v>
    <v>       0.99988700       0.00054316       0.61135962 </v>
    <v>       0.50080979       0.99962437       0.61179301 </v>
    <v>       0.99925744       0.50046551       0.61162786 </v>
    <v>       0.50075555       0.49964789       0.61153019 </v>
    <v>       0.16612755       0.16601869       0.66711114 </v>
    <v>       0.16667170       0.16672202       0.70860253 </v>
   </varray>
  </structure>
  <varray name="forces" >
   <v>       0.16358510       0.09118490       0.18766496 </v>
   <v>      -0.22818880       0.12804501      -0.60831212 </v>
   <v>      -0.00210563      -0.26048880      -0.60838593 </v>
   <v>      -0.00425989       0.00436970      -0.91082120 </v>
   <v>      -0.22496687       0.00096640       0.17746372 </v>
   <v>       0.37487130       0.00043497       0.09742180 </v>
   <v>       0.00251368       0.21745527      -0.21686178 </v>
   <v>      -0.00440625      -0.21566223       0.41712420 </v>
   <v>       0.09798841      -0.15678289      -0.14359783 </v>
   <v>      -0.16813408      -0.08879222      -0.33932109 </v>
   <v>       0.13200508       0.09211320       0.39661504 </v>
   <v>      -0.13705388       0.27026755      -0.08353390 </v>
   <v>       0.17446720       0.20996071       0.29774940 </v>
   <v>       0.14629733      -0.05273766       0.91927107 </v>
   <v>      -0.11109925       0.06526628       0.63579889 </v>
   <v>       0.14539649      -0.09158372       0.35237663 </v>
   <v>      -0.33849993      -0.21085885       6.24828468 </v>
   <v>      -0.01840999      -0.00315763      -6.81893653 </v>
  </varray>
  <varray name="stress" >
   <v>      22.03184162      -0.57206221      -1.24782775 </v>
   <v>      -0.57206203      23.27190318      -0.74327365 </v>
   <v>      -1.24782781      -0.74327363       2.40707382 </v>
  </varray>
  <energy>
   <i name="e_fr_energy">    -49.18894060 </i>
   <i name="e_wo_entrp">    -49.14445390 </i>
   <i name="e_0_energy">    -49.16669725 </i>
  </energy>
  <time name="totalsc">   47.32   47.48</time>
 </calculation>
 <calculation>
  <scstep>
   <time name="dav">    1.43    1.43</time>
   <time name="total">    1.59    1.60</time>
   <energy>
    <i name="alphaZ">    273.47206255 </i>
    <i name="ewald"> 122086.12764705 </i>
    <i name="hartreedc">-140252.04347334 </i>
    <i name="XCdc">     78.20235413 </i>
    <i name="pawpsdc">  19507.02525989 </i>
    <i name="pawaedc"> -19402.99382051 </i>
    <i name="eentropy">     -0.04366745 </i>
    <i name="bandstr">   -918.95308009 </i>
    <i name="atom">  18579.70212963 </i>
    <i name="e_fr_energy">    -49.50458815 </i>
    <i name="e_wo_entrp">    -49.46092070 </i>
    <i name="e_0_energy">    -49.48275442 </i>
   </energy>
  </scstep>
  <scstep>
   <time name="dav">    1.95    1.96</time>
   <time name="total">    2.11    2.12</time>
   <energy>
    <i name="e_fr_energy">    -49.60796322 </i>
    <i name="e_wo_entrp">    -49.56505901 </i>
    <i name="e_0_energy">    -49.58651111 </i>
   </energy>
  </scstep>
  <scstep>
   <time name="dav">    2.07    2.07</time>
   <time name="total">    2.23    2.24</time>
   <energy>
    <i name="e_fr_energy">    -49.59988902 </i>
    <i name="e_wo_entrp">    -49.55675453 </i>
    <i name="e_0_energy">    -49.57832178 </i>
   </energy>
  </scstep>
  <scstep>
   <time name="dav">    2.02    2.03</time>
   <time name="total">    2.19    2.19</time>
   <energy>
    <i name="e_fr_energy">    -49.56175920 </i>
    <i name="e_wo_entrp">    -49.51824852 </i>
    <i name="e_0_energy">    -49.54000386 </i>
   </energy>
  </scstep>
  <scstep>
   <time name="dav">    1.93    1.93</time>
   <time name="total">    2.09    2.09</time>
   <energy>
    <i name="e_fr_energy">    -49.55256354 </i>
    <i name="e_wo_entrp">    -49.50826303 </i>
    <i name="e_0_energy">    -49.53041328 </i>
   </energy>
  </scstep>
  <scstep>
   <time name="dav">    2.02    2.02</time>
   <time name="total">    2.18    2.19</time>
   <energy>
    <i name="e_fr_energy">    -49.55103564 </i>
    <i name="e_wo_entrp">    -49.50738851 </i>
    <i name="e_0_energy">    -49.52921208 </i>
   </energy>
  </scstep>
  <scstep>
   <time name="dav">    1.97    1.98</time>
   <time name="total">    2.14    2.14</time>
   <energy>
    <i name="e_fr_energy">    -49.55076550 </i>
    <i name="e_wo_entrp">    -49.50690922 </i>
    <i name="e_0_energy">    -49.52883736 </i>
   </energy>
  </scstep>
  <scstep>
   <time name="dav">    2.03    2.03</time>
   <time name="total">    2.19    2.20</time>
   <energy>
    <i name="e_fr_energy">    -49.55066045 </i>
    <i name="e_wo_entrp">    -49.50685652 </i>
    <i name="e_0_energy">    -49.52875848 </i>
   </energy>
  </scstep>
  <scstep>
   <time name="dav">    1.94    1.95</time>
   <time name="total">    2.11    2.11</time>
   <energy>
    <i name="e_fr_energy">    -49.55067334 </i>
    <i name="e_wo_entrp">    -49.50685768 </i>
    <i name="e_0_energy">    -49.52876551 </i>
   </energy>
  </scstep>
  <scstep>
   <time name="dav">    1.92    1.93</time>
   <time name="total">    2.09    2.09</time>
   <energy>
    <i name="e_fr_energy">    -49.55075598 </i>
    <i name="e_wo_entrp">    -49.50694750 </i>
    <i name="e_0_energy">    -49.52885174 </i>
   </energy>
  </scstep>
  <scstep>
   <time name="dav">    1.94    1.94</time>
   <time name="total">    2.10    2.11</time>
   <energy>
    <i name="e_fr_energy">    -49.55089210 </i>
    <i name="e_wo_entrp">    -49.50707830 </i>
    <i name="e_0_energy">    -49.52898520 </i>
   </energy>
  </scstep>
  <scstep>
   <time name="dav">    1.48    1.48</time>
   <time name="total">    1.64    1.65</time>
   <energy>
    <i name="e_fr_energy">    -49.55101318 </i>
    <i name="e_wo_entrp">    -49.50721133 </i>
    <i name="e_0_energy">    -49.52911226 </i>
   </energy>
  </scstep>
  <scstep>
   <time name="dav">    1.76    1.77</time>
   <time name="total">    1.93    1.93</time>
   <energy>
    <i name="e_fr_energy">    -49.55114419 </i>
    <i name="e_wo_entrp">    -49.50734238 </i>
    <i name="e_0_energy">    -49.52924329 </i>
   </energy>
  </scstep>
  <scstep>
   <time name="dav">    1.35    1.35</time>
   <time name="total">    1.51    1.52</time>
   <energy>
    <i name="e_fr_energy">    -49.55126889 </i>
    <i name="e_wo_entrp">    -49.50746642 </i>
    <i name="e_0_energy">    -49.52936765 </i>
   </energy>
  </scstep>
  <scstep>
   <time name="dav">    1.31    1.31</time>
   <time name="total">    1.47    1.48</time>
   <energy>
    <i name="e_fr_energy">    -49.55136539 </i>
    <i name="e_wo_entrp">    -49.50756513 </i>
    <i name="e_0_energy">    -49.52946526 </i>
   </energy>
  </scstep>
  <scstep>
   <time name="dav">    1.22    1.22</time>
   <time name="total">    1.38    1.39</time>
   <energy>
    <i name="e_fr_energy">    -49.55139823 </i>
    <i name="e_wo_entrp">    -49.50759566 </i>
    <i name="e_0_energy">    -49.52949694 </i>
   </energy>
  </scstep>
  <scstep>
   <time name="dav">    1.14    1.14</time>
   <time name="total">    1.30    1.31</time>
   <energy>
    <i name="e_fr_energy">    -49.55142355 </i>
    <i name="e_wo_entrp">    -49.50762247 </i>
    <i name="e_0_energy">    -49.52952301 </i>
   </energy>
  </scstep>
  <scstep>
   <time name="dav">    1.13    1.13</time>
   <time name="total">    1.30    1.30</time>
   <energy>
    <i name="e_fr_energy">    -49.55144025 </i>
    <i name="e_wo_entrp">    -49.50763870 </i>
    <i name="e_0_energy">    -49.52953948 </i>
   </energy>
  </scstep>
  <scstep>
   <time name="dav">    1.11    1.11</time>
   <time name="total">    1.28    1.28</time>
   <energy>
    <i name="e_fr_energy">    -49.55144767 </i>
    <i name="e_wo_entrp">    -49.50764612 </i>
    <i name="e_0_energy">    -49.52954690 </i>
   </energy>
  </scstep>
  <scstep>
   <time name="dav">    1.07    1.07</time>
   <time name="total">    1.24    1.25</time>
   <energy>
    <i name="e_fr_energy">    -49.55145057 </i>
    <i name="e_wo_entrp">    -49.50764885 </i>
    <i name="e_0_energy">    -49.52954971 </i>
   </energy>
  </scstep>
  <scstep>
   <time name="dav">    1.05    1.06</time>
   <time name="total">    1.22    1.23</time>
   <energy>
    <i name="e_fr_energy">    -49.55145214 </i>
    <i name="e_wo_entrp">    -49.50765022 </i>
    <i name="e_0_energy">    -49.52955118 </i>
   </energy>
  </scstep>
  <scstep>
   <time name="dav">    1.04    1.04</time>
   <time name="total">    1.07    1.07</time>
   <energy>
    <i name="alphaZ">    273.47206255 </i>
    <i name="ewald"> 122086.12764705 </i>
    <i name="hartreedc">-140284.20301001 </i>
    <i name="XCdc">     78.40844804 </i>
    <i name="pawpsdc">  19607.82252237 </i>
    <i name="pawaedc"> -19503.82454635 </i>
    <i name="eentropy">     -0.04380173 </i>
    <i name="bandstr">   -887.01290438 </i>
    <i name="atom">  18579.70212963 </i>
    <i name="e_fr_energy">    -49.55145282 </i>
    <i name="e_wo_entrp">    -49.50765109 </i>
    <i name="e_0_energy">    -49.52955196 </i>
   </energy>
  </scstep>
  <structure>
   <crystal>
    <varray name="basis" >
     <v>       5.61089231       0.00000000       0.00000000 </v>
     <v>       2.80544615       4.85917528       0.00000000 </v>
     <v>       0.00000000       0.00000000      30.87191158 </v>
    </varray>
    <i name="volume">    841.70134257 </i>
    <varray name="rec_basis" >
     <v>       0.17822477      -0.10289812       0.00000000 </v>
     <v>       0.00000000       0.20579624       0.00000000 </v>
     <v>       0.00000000       0.00000000       0.03239190 </v>
    </varray>
   </crystal>
   <varray name="positions" >
    <v>       0.00000000       0.00000000       0.38870285 </v>
    <v>       0.50000000       0.00000000       0.38870285 </v>
    <v>       0.00000000       0.50000000       0.38870285 </v>
    <v>       0.50000000       0.50000000       0.38870285 </v>
    <v>       0.16666667       0.16666667       0.46290095 </v>
    <v>       0.66666667       0.16666667       0.46290095 </v>
    <v>       0.16666667       0.66666667       0.46290095 </v>
    <v>       0.66666667       0.66666667       0.46290095 </v>
    <v>       0.83364997       0.33303379       0.53706064 </v>
    <v>       0.33315660       0.33315333       0.53698756 </v>
    <v>       0.83347753       0.83348339       0.53718513 </v>
    <v>       0.33283785       0.83385439       0.53706310 </v>
    <v>       0.99995130       0.00023408       0.61132407 </v>
    <v>       0.50034899       0.99983812       0.61151085 </v>
    <v>       0.99967998       0.50020062       0.61143967 </v>
    <v>       0.50032562       0.49984825       0.61139758 </v>
    <v>       0.16643432       0.16638741       0.66852885 </v>
    <v>       0.16666884       0.16669052       0.70723850 </v>
   </varray>
  </structure>
  <varray name="forces" >
   <v>       0.16736320       0.09300194       0.18749800 </v>
   <v>      -0.23134130       0.12942242      -0.60776394 </v>
   <v>      -0.00218600      -0.26399792      -0.60820962 </v>
   <v>      -0.00476014       0.00384626      -0.91154706 </v>
   <v>      -0.22327691       0.00048015       0.18515273 </v>
   <v>       0.37123448       0.00711587       0.10721197 </v>
   <v>       0.00735855       0.21149173      -0.20581628 </v>
   <v>      -0.00855001      -0.21894229       0.41343408 </v>
   <v>       0.11527706      -0.18195210      -0.15180642 </v>
   <v>      -0.18189440      -0.10213183      -0.41237432 </v>
   <v>       0.14903782       0.09459368       0.38431640 </v>
   <v>      -0.16348894       0.31439434      -0.12029008 </v>
   <v>       0.10697799       0.18092471       0.19974504 </v>
   <v>       0.17927465      -0.08295031       0.89668329 </v>
   <v>      -0.14641689       0.10173342       0.61808632 </v>
   <v>       0.17422009      -0.09887465       0.39409100 </v>
   <v>      -0.31414063      -0.20105581       1.68147123 </v>
   <v>       0.00531138       0.01290040      -2.04988232 </v>
  </varray>
  <varray name="stress" >
   <v>      22.36070982      -0.42748261      -1.08172412 </v>
   <v>      -0.42748304      23.47018576      -0.65491440 </v>
   <v>      -1.08172397      -0.65491433      15.62886404 </v>
  </varray>
  <energy>
   <i name="e_fr_energy">    -49.55145282 </i>
   <i name="e_wo_entrp">    -49.50765109 </i>
   <i name="e_0_energy">    -49.52955196 </i>
  </energy>
  <time name="totalsc">   41.00   41.10</time>
 </calculation>
 <calculation>
  <scstep>
   <time name="dav">    1.43    1.43</time>
   <time name="total">    1.59    1.60</time>
   <energy>
    <i name="alphaZ">    273.47206255 </i>
    <i name="ewald"> 122105.06331355 </i>
    <i name="hartreedc">-140301.66750210 </i>
    <i name="XCdc">     78.46883352 </i>
    <i name="pawpsdc">  19607.82052054 </i>
    <i name="pawaedc"> -19503.82260083 </i>
    <i name="eentropy">     -0.04370084 </i>
    <i name="bandstr">   -888.55937842 </i>
    <i name="atom">  18579.70212963 </i>
    <i name="e_fr_energy">    -49.56632239 </i>
    <i name="e_wo_entrp">    -49.52262155 </i>
    <i name="e_0_energy">    -49.54447197 </i>
   </energy>
  </scstep>
  <scstep>
   <time name="dav">    1.81    1.81</time>
   <time name="total">    1.97    1.97</time>
   <energy>
    <i name="e_fr_energy">    -49.56870394 </i>
    <i name="e_wo_entrp">    -49.52501675 </i>
    <i name="e_0_energy">    -49.54686034 </i>
   </energy>
  </scstep>
  <scstep>
   <time name="dav">    2.09    2.09</time>
   <time name="total">    2.25    2.26</time>
   <energy>
    <i name="e_fr_energy">    -49.56981796 </i>
    <i name="e_wo_entrp">    -49.52606158 </i>
    <i name="e_0_energy">    -49.54793977 </i>
   </energy>
  </scstep>
  <scstep>
   <time name="dav">    2.08    2.08</time>
   <time name="total">    2.24    2.24</time>
   <energy>
    <i name="e_fr_energy">    -49.56727533 </i>
    <i name="e_wo_entrp">    -49.52366061 </i>
    <i name="e_0_energy">    -49.54546797 </i>
   </energy>
  </scstep>
  <scstep>
   <time name="dav">    1.98    1.99</time>
   <time name="total">    2.14    2.15</time>
   <energy>
    <i name="e_fr_energy">    -49.56702796 </i>
    <i name="e_wo_entrp">    -49.52326711 </i>
    <i name="e_0_energy">    -49.54514753 </i>
   </energy>
  </scstep>
  <scstep>
   <time name="dav">    2.05    2.06</time>
   <time name="total">    2.22    2.22</time>
   <energy>
    <i name="e_fr_energy">    -49.56698986 </i>
    <i name="e_wo_entrp">    -49.52331500 </i>
    <i name="e_0_energy">    -49.54515243 </i>
   </energy>
  </scstep>
  <scstep>
   <time name="dav">    1.98    1.99</time>
   <time name="total">    2.15    2.15</time>
   <energy>
    <i name="e_fr_energy">    -49.56698783 </i>
    <i name="e_wo_entrp">    -49.52328839 </i>
    <i name="e_0_energy">    -49.54513811 </i>
   </energy>
  </scstep>
  <scstep>
   <time name="dav">    1.41    1.41</time>
   <time name="total">    1.57    1.58</time>
   <energy>
    <i name="e_fr_energy">    -49.56699783 </i>
    <i name="e_wo_entrp">    -49.52331019 </i>
    <i name="e_0_energy">    -49.54515401 </i>
   </energy>
  </scstep>
  <scstep>
   <time name="dav">    1.40    1.41</time>
   <time name="total">    1.57    1.57</time>
   <energy>
    <i name="e_fr_energy">    -49.56700710 </i>
    <i name="e_wo_entrp">    -49.52331505 </i>
    <i name="e_0_energy">    -49.54516107 </i>
   </energy>
  </scstep>
  <scstep>
   <time name="dav">    1.31    1.31</time>
   <time name="total">    1.48    1.48</time>
   <energy>
    <i name="e_fr_energy">    -49.56702385 </i>
    <i name="e_wo_entrp">    -49.52333423 </i>
    <i name="e_0_energy">    -49.54517904 </i>
   </energy>
  </scstep>
  <scstep>
   <time name="dav">    1.18    1.19</time>
   <time name="total">    1.35    1.35</time>
   <energy>
    <i name="e_fr_energy">    -49.56703782 </i>
    <i name="e_wo_entrp">    -49.52334744 </i>
    <i name="e_0_energy">    -49.54519263 </i>
   </energy>
  </scstep>
  <scstep>
   <time name="dav">    1.14    1.15</time>
   <time name="total">    1.31    1.31</time>
   <energy>
    <i name="e_fr_energy">    -49.56705252 </i>
    <i name="e_wo_entrp">    -49.52336574 </i>
    <i name="e_0_energy">    -49.54520913 </i>
   </energy>
  </scstep>
  <scstep>
   <time name="dav">    1.13    1.13</time>
   <time name="total">    1.29    1.30</time>
   <energy>
    <i name="e_fr_energy">    -49.56706190 </i>
    <i name="e_wo_entrp">    -49.52337527 </i>
    <i name="e_0_energy">    -49.54521858 </i>
   </energy>
  </scstep>
  <scstep>
   <time name="dav">    1.15    1.15</time>
   <time name="total">    1.31    1.32</time>
   <energy>
    <i name="e_fr_energy">    -49.56707177 </i>
    <i name="e_wo_entrp">    -49.52338476 </i>
    <i name="e_0_energy">    -49.54522826 </i>
   </energy>
  </scstep>
  <scstep>
   <time name="dav">    1.09    1.10</time>
   <time name="total">    1.26    1.26</time>
   <energy>
    <i name="e_fr_energy">    -49.56707667 </i>
    <i name="e_wo_entrp">    -49.52338956 </i>
    <i name="e_0_energy">    -49.54523312 </i>
   </energy>
  </scstep>
  <scstep>
   <time name="dav">    1.07    1.07</time>
   <time name="total">    1.24    1.24</time>
   <energy>
    <i name="e_fr_energy">    -49.56707837 </i>
    <i name="e_wo_entrp">    -49.52339171 </i>
    <i name="e_0_energy">    -49.54523504 </i>
   </energy>
  </scstep>
  <scstep>
   <time name="dav">    1.08    1.08</time>
   <time name="total">    1.24    1.25</time>
   <energy>
    <i name="e_fr_energy">    -49.56708047 </i>
    <i name="e_wo_entrp">    -49.52339339 </i>
    <i name="e_0_energy">    -49.54523693 </i>
   </energy>
  </scstep>
  <scstep>
   <time name="dav">    1.08    1.08</time>
   <time name="total">    1.25    1.25</time>
   <energy>
    <i name="e_fr_energy">    -49.56708148 </i>
    <i name="e_wo_entrp">    -49.52339473 </i>
    <i name="e_0_energy">    -49.54523810 </i>
   </energy>
  </scstep>
  <scstep>
   <time name="dav">    1.05    1.06</time>
   <time name="total">    1.08    1.08</time>
   <energy>
    <i name="alphaZ">    273.47206255 </i>
    <i name="ewald"> 122105.06331355 </i>
    <i name="hartreedc">-140308.13568827 </i>
    <i name="XCdc">     78.51227417 </i>
    <i name="pawpsdc">  19631.92705681 </i>
    <i name="pawaedc"> -19527.94016651 </i>
    <i name="eentropy">     -0.04368700 </i>
    <i name="bandstr">   -882.12437691 </i>
    <i name="atom">  18579.70212963 </i>
    <i name="e_fr_energy">    -49.56708198 </i>
    <i name="e_wo_entrp">    -49.52339498 </i>
    <i name="e_0_energy">    -49.54523848 </i>
   </energy>
  </scstep>
  <structure>
   <crystal>
    <varray name="basis" >
     <v>       5.61089231       0.00000000       0.00000000 </v>
     <v>       2.80544615       4.85917528       0.00000000 </v>
     <v>       0.00000000       0.00000000      30.87191158 </v>
    </varray>
    <i name="volume">    841.70134257 </i>
    <varray name="rec_basis" >
     <v>       0.17822477      -0.10289812       0.00000000 </v>
     <v>       0.00000000       0.20579624       0.00000000 </v>
     <v>       0.00000000       0.00000000       0.03239190 </v>
    </varray>
   </crystal>
   <varray name="positions" >
    <v>       0.00000000       0.00000000       0.38870285 </v>
    <v>       0.50000000       0.00000000       0.38870285 </v>
    <v>       0.00000000       0.50000000       0.38870285 </v>
    <v>       0.50000000       0.50000000       0.38870285 </v>
    <v>       0.16666667       0.16666667       0.46290095 </v>
    <v>       0.66666667       0.16666667       0.46290095 </v>
    <v>       0.16666667       0.66666667       0.46290095 </v>
    <v>       0.66666667       0.66666667       0.46290095 </v>
    <v>       0.83357012       0.33310932       0.53707033 </v>
    <v>       0.33320117       0.33319872       0.53701567 </v>
    <v>       0.83344117       0.83344555       0.53716342 </v>
    <v>       0.33296280       0.83372300       0.53707216 </v>
    <v>       0.99996358       0.00017506       0.61131728 </v>
    <v>       0.50026099       0.99987894       0.61145696 </v>
    <v>       0.99976068       0.50015003       0.61140373 </v>
    <v>       0.50024351       0.49988652       0.61137226 </v>
    <v>       0.16649291       0.16645783       0.66879961 </v>
    <v>       0.16666829       0.16668451       0.70697799 </v>
   </varray>
  </structure>
  <varray name="forces" >
   <v>       0.16837045       0.09323003       0.18629201 </v>
   <v>      -0.23143233       0.12959031      -0.60884656 </v>
   <v>      -0.00178306      -0.26459323      -0.60935098 </v>
   <v>      -0.00443589       0.00370338      -0.91292963 </v>
   <v>      -0.22252634       0.00035642       0.18543607 </v>
   <v>       0.37096014       0.00830721       0.10783567 </v>
   <v>       0.00866344       0.21033224      -0.20494811 </v>
   <v>      -0.00891583      -0.21960736       0.41150227 </v>
   <v>       0.11892051      -0.18673620      -0.15470214 </v>
   <v>      -0.18986152      -0.10807434      -0.43212885 </v>
   <v>       0.15522485       0.09646570       0.38351817 </v>
   <v>      -0.16695571       0.32357482      -0.12869168 </v>
   <v>       0.09378631       0.17490761       0.17875335 </v>
   <v>       0.18551333      -0.08889552       0.89682480 </v>
   <v>      -0.15308486       0.11064724       0.61380581 </v>
   <v>       0.17802284      -0.09905065       0.39952488 </v>
   <v>      -0.30911347      -0.19893472       0.38220316 </v>
   <v>       0.00864714       0.01477704      -0.69409824 </v>
  </varray>
  <varray name="stress" >
   <v>      22.44525343      -0.41107114      -1.05840396 </v>
   <v>      -0.41107114      23.53515447      -0.64235105 </v>
   <v>      -1.05840393      -0.64235105      18.99714162 </v>
  </varray>
  <energy>
[...]
        <r>  0.0013  0.0024  0.0010  0.0002  0.0012  0.0001  0.0010  0.0010  0.0041 </r>
        <r>  0.0113  0.0029  0.0001  0.0122  0.0008  0.0012  0.0008  0.0011  0.0004 </r>
        <r>  0.0092  0.0008  0.0074  0.0083  0.0016  0.0037  0.0069  0.0007  0.0017 </r>
        <r>  0.0028  0.0026  0.0001  0.0011  0.0003  0.0027  0.0248  0.0031  0.0001 </r>
        <r>  0.0159  0.0001  0.0039  0.0078  0.0018  0.0010  0.0001  0.0003  0.0003 </r>
        <r>  0.0135  0.0048  0.0047  0.0029  0.0002  0.0009  0.0001  0.0005  0.0022 </r>
        <r>  0.0292  0.0034  0.0028  0.0013  0.0022  0.0026  0.0003  0.0009  0.0007 </r>
        <r>  0.0109  0.0055  0.0061  0.0083  0.0000  0.0000  0.0000  0.0000  0.0000 </r>
        <r>  0.0002  0.0045  0.0022  0.0050  0.0000  0.0000  0.0000  0.0000  0.0000 </r>
       </set>
       <set comment="band 102">
        <r>  0.0000  0.0032  0.0006  0.0103  0.0022  0.0038  0.0015  0.0026  0.0057 </r>
        <r>  0.0022  0.0046  0.0058  0.0129  0.0025  0.0031  0.0001  0.0008  0.0062 </r>
        <r>  0.0021  0.0039  0.0058  0.0119  0.0024  0.0013  0.0001  0.0037  0.0071 </r>
        <r>  0.0031  0.0046  0.0106  0.0124  0.0020  0.0001  0.0002  0.0002  0.0057 </r>
        <r>  0.0150  0.0015  0.0035  0.0011  0.0061  0.0009  0.0075  0.0009  0.0022 </r>
        <r>  0.0273  0.0037  0.0062  0.0028  0.0060  0.0020  0.0054  0.0001  0.0013 </r>
        <r>  0.0333  0.0040  0.0047  0.0007  0.0051  0.0016  0.0035  0.0008  0.0031 </r>
        <r>  0.0183  0.0022  0.0040  0.0016  0.0050  0.0020  0.0065  0.0018  0.0020 </r>
        <r>  0.0060  0.0033  0.0026  0.0103  0.0018  0.0003  0.0008  0.0010  0.0043 </r>
        <r>  0.0077  0.0042  0.0094  0.0131  0.0030  0.0009  0.0003  0.0008  0.0041 </r>
        <r>  0.0006  0.0035  0.0014  0.0053  0.0020  0.0038  0.0075  0.0009  0.0062 </r>
        <r>  0.0098  0.0041  0.0024  0.0078  0.0022  0.0012  0.0005  0.0002  0.0044 </r>
        <r>  0.0018  0.0011  0.0003  0.0016  0.0001  0.0011  0.0076  0.0021  0.0002 </r>
        <r>  0.0068  0.0001  0.0103  0.0037  0.0003  0.0022  0.0007  0.0016  0.0001 </r>
        <r>  0.0045  0.0023  0.0090  0.0008  0.0000  0.0040  0.0008  0.0017  0.0005 </r>
        <r>  0.0004  0.0015  0.0013  0.0005  0.0008  0.0011  0.0006  0.0009  0.0015 </r>
        <r>  0.0050  0.0138  0.0027  0.0169  0.0000  0.0000  0.0000  0.0000  0.0000 </r>
        <r>  0.0000  0.0049  0.0007  0.0077  0.0000  0.0000  0.0000  0.0000  0.0000 </r>
       </set>
       <set comment="band 103">
        <r>  0.0091  0.0084  0.0006  0.0205  0.0048  0.0007  0.0011  0.0005  0.0089 </r>
        <r>  0.0083  0.0065  0.0037  0.0228  0.0064  0.0014  0.0014  0.0002  0.0097 </r>
        <r>  0.0075  0.0107  0.0049  0.0193  0.0052  0.0004  0.0015  0.0005  0.0103 </r>
        <r>  0.0073  0.0069  0.0011  0.0181  0.0062  0.0010  0.0009  0.0018  0.0103 </r>
        <r>  0.0018  0.0020  0.0023  0.0018  0.0010  0.0033  0.0015  0.0012  0.0017 </r>
        <r>  0.0040  0.0009  0.0118  0.0033  0.0016  0.0006  0.0005  0.0023  0.0011 </r>
        <r>  0.0032  0.0019  0.0091  0.0026  0.0011  0.0037  0.0008  0.0000  0.0017 </r>
        <r>  0.0055  0.0012  0.0169  0.0033  0.0015  0.0003  0.0000  0.0004  0.0009 </r>
        <r>  0.0117  0.0056  0.0006  0.0045  0.0029  0.0002  0.0022  0.0009  0.0044 </r>
        <r>  0.0208  0.0019  0.0007  0.0065  0.0046  0.0005  0.0005  0.0011  0.0039 </r>
        <r>  0.0080  0.0064  0.0035  0.0076  0.0038  0.0005  0.0039  0.0003  0.0042 </r>
        <r>  0.0113  0.0016  0.0005  0.0074  0.0053  0.0007  0.0023  0.0009  0.0032 </r>
        <r>  0.0000  0.0036  0.0001  0.0106  0.0009  0.0024  0.0001  0.0074  0.0024 </r>
        <r>  0.0024  0.0013  0.0016  0.0118  0.0023  0.0000  0.0003  0.0035  0.0027 </r>
        <r>  0.0026  0.0075  0.0012  0.0079  0.0007  0.0019  0.0003  0.0011  0.0049 </r>
        <r>  0.0001  0.0023  0.0000  0.0066  0.0023  0.0002  0.0000  0.0005  0.0069 </r>
        <r>  0.0001  0.0084  0.0001  0.0285  0.0000  0.0000  0.0000  0.0000  0.0000 </r>
        <r>  0.0000  0.0043  0.0001  0.0140  0.0000  0.0000  0.0000  0.0000  0.0000 </r>
       </set>
       <set comment="band 104">
        <r>  0.0167  0.0026  0.0015  0.0013  0.0033  0.0014  0.0007  0.0006  0.0014 </r>
        <r>  0.0096  0.0016  0.0035  0.0019  0.0043  0.0009  0.0029  0.0004  0.0011 </r>
        <r>  0.0107  0.0025  0.0043  0.0010  0.0036  0.0011  0.0028  0.0002  0.0019 </r>
        <r>  0.0160  0.0026  0.0043  0.0016  0.0032  0.0008  0.0006  0.0014  0.0012 </r>
        <r>  0.0037  0.0017  0.0071  0.0070  0.0007  0.0007  0.0003  0.0020  0.0018 </r>
        <r>  0.0000  0.0023  0.0045  0.0065  0.0009  0.0041  0.0008  0.0029  0.0033 </r>
        <r>  0.0001  0.0019  0.0075  0.0062  0.0012  0.0011  0.0006  0.0030  0.0028 </r>
        <r>  0.0015  0.0023  0.0014  0.0058  0.0008  0.0026  0.0000  0.0010  0.0031 </r>
        <r>  0.0024  0.0017  0.0033  0.0081  0.0026  0.0015  0.0018  0.0017  0.0036 </r>
        <r>  0.0150  0.0040  0.0034  0.0091  0.0027  0.0045  0.0000  0.0025  0.0034 </r>
        <r>  0.0128  0.0052  0.0200  0.0088  0.0027  0.0019  0.0004  0.0019  0.0043 </r>
        <r>  0.0026  0.0039  0.0057  0.0085  0.0026  0.0013  0.0029  0.0010  0.0038 </r>
        <r>  0.0201  0.0039  0.0035  0.0107  0.0037  0.0018  0.0002  0.0034  0.0034 </r>
        <r>  0.0077  0.0025  0.0080  0.0115  0.0061  0.0021  0.0046  0.0018  0.0036 </r>
        <r>  0.0105  0.0063  0.0100  0.0084  0.0035  0.0023  0.0046  0.0007  0.0074 </r>
        <r>  0.0308  0.0051  0.0001  0.0080  0.0037  0.0010  0.0015  0.0004  0.0061 </r>
        <r>  0.0008  0.0152  0.0004  0.0100  0.0000  0.0000  0.0000  0.0000  0.0000 </r>
        <r>  0.0001  0.0046  0.0004  0.0054  0.0000  0.0000  0.0000  0.0000  0.0000 </r>
       </set>
       <set comment="band 105">
        <r>  0.0033  0.0007  0.0004  0.0019  0.0000  0.0016  0.0001  0.0035  0.0006 </r>
        <r>  0.0007  0.0001  0.0191  0.0019  0.0001  0.0035  0.0007  0.0011  0.0009 </r>
        <r>  0.0005  0.0003  0.0237  0.0013  0.0002  0.0025  0.0007  0.0010  0.0008 </r>
        <r>  0.0013  0.0002  0.0009  0.0010  0.0003  0.0015  0.0002  0.0048  0.0008 </r>
        <r>  0.0066  0.0012  0.0252  0.0001  0.0002  0.0012  0.0001  0.0001  0.0003 </r>
        <r>  0.0008  0.0001  0.0067  0.0003  0.0005  0.0026  0.0012  0.0023  0.0002 </r>
        <r>  0.0003  0.0003  0.0065  0.0001  0.0007  0.0017  0.0011  0.0055  0.0002 </r>
        <r>  0.0028  0.0003  0.0048  0.0001  0.0007  0.0042  0.0002  0.0059  0.0001 </r>
        <r>  0.0049  0.0004  0.0058  0.0016  0.0022  0.0008  0.0024  0.0050  0.0005 </r>
        <r>  0.0120  0.0016  0.0209  0.0019  0.0024  0.0027  0.0002  0.0043  0.0020 </r>
        <r>  0.0125  0.0035  0.0139  0.0017  0.0014  0.0027  0.0003  0.0007  0.0011 </r>
        <r>  0.0019  0.0005  0.0024  0.0005  0.0019  0.0037  0.0028  0.0038  0.0018 </r>
        <r>  0.0185  0.0020  0.0009  0.0002  0.0007  0.0005  0.0000  0.0000  0.0000 </r>
        <r>  0.0064  0.0005  0.0292  0.0003  0.0015  0.0037  0.0026  0.0003  0.0003 </r>
        <r>  0.0040  0.0008  0.0194  0.0006  0.0019  0.0020  0.0028  0.0041  0.0002 </r>
        <r>  0.0099  0.0011  0.0002  0.0010  0.0020  0.0026  0.0003  0.0102  0.0002 </r>
        <r>  0.0004  0.0070  0.0001  0.0208  0.0000  0.0000  0.0000  0.0000  0.0000 </r>
        <r>  0.0009  0.0025  0.0002  0.0013  0.0000  0.0000  0.0000  0.0000  0.0000 </r>
       </set>
       <set comment="band 106">
        <r>  0.0030  0.0000  0.0189  0.0002  0.0001  0.0008  0.0027  0.0003  0.0000 </r>
        <r>  0.0024  0.0006  0.0028  0.0001  0.0001  0.0002  0.0018  0.0032  0.0001 </r>
        <r>  0.0024  0.0013  0.0012  0.0000  0.0000  0.0021  0.0015  0.0012  0.0000 </r>
        <r>  0.0013  0.0002  0.0051  0.0004  0.0002  0.0029  0.0006  0.0007  0.0000 </r>
        <r>  0.0025  0.0002  0.0025  0.0007  0.0001  0.0005  0.0035  0.0019  0.0001 </r>
        <r>  0.0055  0.0002  0.0103  0.0005  0.0002  0.0021  0.0023  0.0009  0.0002 </r>
        <r>  0.0057  0.0004  0.0110  0.0003  0.0000  0.0018  0.0019  0.0005  0.0003 </r>
        <r>  0.0034  0.0019  0.0000  0.0006  0.0002  0.0019  0.0020  0.0018  0.0005 </r>
        <r>  0.0073  0.0024  0.0049  0.0002  0.0001  0.0017  0.0033  0.0004  0.0001 </r>
        <r>  0.0021  0.0000  0.0057  0.0002  0.0005  0.0018  0.0028  0.0005  0.0001 </r>
        <r>  0.0065  0.0002  0.0039  0.0003  0.0010  0.0017  0.0049  0.0015  0.0002 </r>
        <r>  0.0082  0.0022  0.0041  0.0007  0.0005  0.0006  0.0031  0.0024  0.0001 </r>
        <r>  0.0062  0.0010  0.0041  0.0001  0.0000  0.0001  0.0064  0.0000  0.0000 </r>
        <r>  0.0076  0.0001  0.0016  0.0021  0.0001  0.0025  0.0025  0.0005  0.0003 </r>
        <r>  0.0082  0.0009  0.0050  0.0001  0.0002  0.0003  0.0029  0.0015  0.0002 </r>
        <r>  0.0010  0.0022  0.0074  0.0006  0.0000  0.0016  0.0031  0.0007  0.0003 </r>
        <r>  0.0021  0.0055  0.0001  0.0040  0.0000  0.0000  0.0000  0.0000  0.0000 </r>
        <r>  0.0051  0.0015  0.0002  0.0007  0.0000  0.0000  0.0000  0.0000  0.0000 </r>
       </set>
       <set comment="band 107">
        <r>  0.0039  0.0001  0.0121  0.0001  0.0002  0.0009  0.0001  0.0014  0.0003 </r>
        <r>  0.0063  0.0006  0.0030  0.0002  0.0002  0.0012  0.0003  0.0036  0.0007 </r>
        <r>  0.0051  0.0002  0.0014  0.0019  0.0004  0.0010  0.0001  0.0029  0.0002 </r>
        <r>  0.0001  0.0001  0.0160  0.0008  0.0003  0.0009  0.0028  0.0009  0.0005 </r>
        <r>  0.0010  0.0009  0.0034  0.0006  0.0006  0.0019  0.0004  0.0045  0.0001 </r>
        <r>  0.0004  0.0003  0.0048  0.0002  0.0004  0.0006  0.0009  0.0065  0.0001 </r>
        <r>  0.0037  0.0004  0.0085  0.0004  0.0001  0.0018  0.0008  0.0014  0.0000 </r>
        <r>  0.0037  0.0008  0.0169  0.0005  0.0003  0.0006  0.0011  0.0004  0.0004 </r>
        <r>  0.0048  0.0000  0.0154  0.0058  0.0006  0.0021  0.0010  0.0004  0.0007 </r>
        <r>  0.0000  0.0020  0.0009  0.0065  0.0006  0.0005  0.0016  0.0011  0.0010 </r>
        <r>  0.0028  0.0003  0.0023  0.0001  0.0003  0.0010  0.0006  0.0057  0.0016 </r>
        <r>  0.0077  0.0034  0.0114  0.0008  0.0000  0.0009  0.0026  0.0030  0.0013 </r>
        <r>  0.0067  0.0012  0.0005  0.0026  0.0003  0.0004  0.0078  0.0005  0.0009 </r>
        <r>  0.0088  0.0018  0.0040  0.0097  0.0012  0.0001  0.0024  0.0036  0.0003 </r>
        <r>  0.0086  0.0030  0.0101  0.0040  0.0000  0.0022  0.0016  0.0017  0.0021 </r>
        <r>  0.0312  0.0028  0.0283  0.0028  0.0003  0.0012  0.0014  0.0011  0.0011 </r>
        <r>  0.0057  0.0095  0.0051  0.0130  0.0000  0.0000  0.0000  0.0000  0.0000 </r>
        <r>  0.0023  0.0045  0.0008  0.0044  0.0000  0.0000  0.0000  0.0000  0.0000 </r>
       </set>
       <set comment="band 108">
        <r>  0.0174  0.0040  0.0009  0.0109  0.0031  0.0012  0.0009  0.0010  0.0040 </r>
        <r>  0.0169  0.0058  0.0014  0.0131  0.0035  0.0000  0.0009  0.0007  0.0040 </r>
        <r>  0.0174  0.0052  0.0014  0.0114  0.0033  0.0014  0.0006  0.0010  0.0047 </r>
        <r>  0.0124  0.0056  0.0014  0.0119  0.0029  0.0000  0.0017  0.0003  0.0039 </r>
        <r>  0.0088  0.0038  0.0007  0.0022  0.0040  0.0039  0.0006  0.0064  0.0016 </r>
        <r>  0.0148  0.0028  0.0081  0.0033  0.0051  0.0008  0.0003  0.0060  0.0011 </r>
        <r>  0.0111  0.0063  0.0034  0.0012  0.0037  0.0056  0.0005  0.0058  0.0024 </r>
        <r>  0.0114  0.0030  0.0061  0.0016  0.0041  0.0012  0.0003  0.0036  0.0015 </r>
        <r>  0.0158  0.0019  0.0031  0.0010  0.0028  0.0025  0.0002  0.0028  0.0006 </r>
        <r>  0.0066  0.0037  0.0161  0.0009  0.0027  0.0008  0.0021  0.0034  0.0006 </r>
        <r>  0.0145  0.0010  0.0037  0.0001  0.0032  0.0037  0.0000  0.0033  0.0007 </r>
        <r>  0.0082  0.0031  0.0092  0.0000  0.0029  0.0009  0.0004  0.0033  0.0009 </r>
        <r>  0.0013  0.0051  0.0003  0.0141  0.0011  0.0000  0.0002  0.0004  0.0033 </r>
        <r>  0.0043  0.0025  0.0022  0.0168  0.0025  0.0002  0.0001  0.0003  0.0044 </r>
        <r>  0.0024  0.0087  0.0015  0.0171  0.0010  0.0003  0.0004  0.0001  0.0051 </r>
        <r>  0.0010  0.0034  0.0019  0.0139  0.0020  0.0001  0.0009  0.0000  0.0065 </r>
        <r>  0.0002  0.0105  0.0001  0.0223  0.0000  0.0000  0.0000  0.0000  0.0000 </r>
        <r>  0.0001  0.0031  0.0001  0.0051  0.0000  0.0000  0.0000  0.0000  0.0000 </r>
       </set>
       <set comment="band 109">
        <r>  0.0014  0.0001  0.0012  0.0001  0.0001  0.0002  0.0019  0.0001  0.0000 </r>
        <r>  0.0039  0.0007  0.0012  0.0001  0.0000  0.0002  0.0016  0.0000  0.0000 </r>
        <r>  0.0041  0.0007  0.0008  0.0001  0.0000  0.0002  0.0017  0.0001  0.0000 </r>
        <r>  0.0014  0.0001  0.0016  0.0001  0.0001  0.0002  0.0021  0.0001  0.0000 </r>
        <r>  0.0008  0.0001  0.0020  0.0001  0.0000  0.0002  0.0005  0.0001  0.0000 </r>
        <r>  0.0012  0.0002  0.0022  0.0001  0.0000  0.0005  0.0006  0.0002  0.0000 </r>
        <r>  0.0010  0.0002  0.0026  0.0001  0.0000  0.0005  0.0006  0.0002  0.0000 </r>
        <r>  0.0008  0.0000  0.0015  0.0001  0.0000  0.0003  0.0007  0.0002  0.0000 </r>
        <r>  0.0004  0.0001  0.0022  0.0002  0.0000  0.0004  0.0000  0.0001  0.0000 </r>
        <r>  0.0000  0.0001  0.0028  0.0002  0.0001  0.0005  0.0000  0.0002  0.0001 </r>
        <r>  0.0003  0.0001  0.0029  0.0001  0.0001  0.0004  0.0000  0.0003  0.0001 </r>
        <r>  0.0001  0.0002  0.0035  0.0001  0.0000  0.0004  0.0000  0.0001  0.0001 </r>
        <r>  0.0007  0.0000  0.0015  0.0000  0.0000  0.0000  0.0006  0.0000  0.0000 </r>
        <r>  0.0017  0.0003  0.0027  0.0001  0.0000  0.0003  0.0008  0.0002  0.0000 </r>
        <r>  0.0008  0.0003  0.0026  0.0000  0.0000  0.0006  0.0007  0.0002  0.0000 </r>
        <r>  0.0005  0.0000  0.0016  0.0001  0.0001  0.0004  0.0001  0.0001  0.0000 </r>
        <r>  0.0009  0.0004  0.0000  0.0006  0.0000  0.0000  0.0000  0.0000  0.0000 </r>
        <r>  0.0032  0.0030  0.0001  0.0012  0.0000  0.0000  0.0000  0.0000  0.0000 </r>
       </set>
       <set comment="band 110">
        <r>  0.0136  0.0056  0.0184  0.0020  0.0024  0.0001  0.0022  0.0001  0.0009 </r>
        <r>  0.0201  0.0016  0.0001  0.0038  0.0041  0.0002  0.0002  0.0006  0.0012 </r>
        <r>  0.0190  0.0057  0.0004  0.0007  0.0034  0.0003  0.0005  0.0003  0.0015 </r>
        <r>  0.0237  0.0007  0.0007  0.0007  0.0044  0.0020  0.0001  0.0005  0.0016 </r>
        <r>  0.0048  0.0002  0.0063  0.0011  0.0004  0.0002  0.0009  0.0003  0.0010 </r>
        <r>  0.0016  0.0021  0.0026  0.0021  0.0003  0.0017  0.0015  0.0016  0.0008 </r>
        <r>  0.0017  0.0001  0.0021  0.0030  0.0005  0.0002  0.0012  0.0023  0.0007 </r>
        <r>  0.0010  0.0025  0.0016  0.0044  0.0001  0.0017  0.0000  0.0031  0.0004 </r>
        <r>  0.0064  0.0030  0.0008  0.0008  0.0001  0.0003  0.0012  0.0017  0.0007 </r>
        <r>  0.0004  0.0007  0.0001  0.0003  0.0003  0.0021  0.0005  0.0036  0.0007 </r>
        <r>  0.0020  0.0013  0.0026  0.0028  0.0001  0.0009  0.0028  0.0023  0.0002 </r>
        <r>  0.0057  0.0000  0.0004  0.0027  0.0005  0.0010  0.0021  0.0020  0.0002 </r>
        <r>  0.0425  0.0008  0.0001  0.0011  0.0021  0.0000  0.0024  0.0000  0.0011 </r>
        <r>  0.0114  0.0024  0.0008  0.0013  0.0027  0.0003  0.0021  0.0001  0.0015 </r>
        <r>  0.0101  0.0008  0.0021  0.0033  0.0033  0.0001  0.0021  0.0000  0.0011 </r>
        <r>  0.0115  0.0059  0.0003  0.0036  0.0017  0.0002  0.0012  0.0000  0.0012 </r>
        <r>  0.0015  0.0021  0.0005  0.0033  0.0000  0.0000  0.0000  0.0000  0.0000 </r>
        <r>  0.0004  0.0013  0.0033  0.0006  0.0000  0.0000  0.0000  0.0000  0.0000 </r>
       </set>
       <set comment="band 111">
        <r>  0.0002  0.0000  0.0000  0.0000  0.0000  0.0000  0.0011  0.0000  0.0000 </r>
        <r>  0.0024  0.0002  0.0002  0.0002  0.0000  0.0001  0.0005  0.0000  0.0000 </r>
        <r>  0.0024  0.0004  0.0003  0.0000  0.0000  0.0000  0.0005  0.0001  0.0000 </r>
        <r>  0.0000  0.0001  0.0004  0.0001  0.0001  0.0000  0.0006  0.0000  0.0000 </r>
        <r>  0.0011  0.0000  0.0003  0.0000  0.0000  0.0001  0.0002  0.0000  0.0000 </r>
        <r>  0.0001  0.0001  0.0008  0.0001  0.0000  0.0002  0.0004  0.0001  0.0000 </r>
        <r>  0.0002  0.0002  0.0009  0.0001  0.0000  0.0001  0.0003  0.0001  0.0000 </r>
        <r>  0.0006  0.0000  0.0004  0.0001  0.0000  0.0001  0.0001  0.0001  0.0000 </r>
        <r>  0.0003  0.0001  0.0011  0.0001  0.0000  0.0001  0.0000  0.0001  0.0000 </r>
        <r>  0.0001  0.0001  0.0009  0.0000  0.0000  0.0001  0.0000  0.0000  0.0000 </r>
        <r>  0.0001  0.0001  0.0007  0.0000  0.0000  0.0002  0.0000  0.0001  0.0000 </r>
        <r>  0.0001  0.0001  0.0013  0.0000  0.0000  0.0001  0.0000  0.0001  0.0000 </r>
        <r>  0.0000  0.0001  0.0009  0.0000  0.0000  0.0000  0.0001  0.0000  0.0000 </r>
        <r>  0.0013  0.0002  0.0004  0.0000  0.0000  0.0001  0.0002  0.0001  0.0000 </r>
        <r>  0.0011  0.0001  0.0006  0.0000  0.0000  0.0002  0.0002  0.0001  0.0000 </r>
        <r>  0.0000  0.0000  0.0006  0.0000  0.0000  0.0001  0.0004  0.0000  0.0000 </r>
        <r>  0.0001  0.0000  0.0000  0.0001  0.0000  0.0000  0.0000  0.0000  0.0000 </r>
        <r>  0.0007  0.0013  0.0000  0.0004  0.0000  0.0000  0.0000  0.0000  0.0000 </r>
       </set>
      </set>
     </set>
    </set>
   </array>
  </projected>
 </calculation>
 <structure name="finalpos" >
  <crystal>
   <varray name="basis" >
    <v>       5.61089231       0.00000000       0.00000000 </v>
    <v>       2.80544615       4.85917528       0.00000000 </v>
    <v>       0.00000000       0.00000000      30.87191158 </v>
   </varray>
   <i name="volume">    841.70134257 </i>
   <varray name="rec_basis" >
    <v>       0.17822477      -0.10289812       0.00000000 </v>
    <v>       0.00000000       0.20579624       0.00000000 </v>
    <v>       0.00000000       0.00000000       0.03239190 </v>
   </varray>
  </crystal>
  <varray name="positions" >
   <v>       0.00000000       0.00000000       0.38870285 </v>
   <v>       0.50000000       0.00000000       0.38870285 </v>
   <v>       0.00000000       0.50000000       0.38870285 </v>
   <v>       0.50000000       0.50000000       0.38870285 </v>
   <v>       0.16666667       0.16666667       0.46290095 </v>
   <v>       0.66666667       0.16666667       0.46290095 </v>
   <v>       0.16666667       0.66666667       0.46290095 </v>
   <v>       0.66666667       0.66666667       0.46290095 </v>
   <v>       0.84193014       0.33524864       0.53732965 </v>
   <v>       0.33215058       0.33937890       0.53916827 </v>
   <v>       0.83543638       0.84428402       0.54349096 </v>
   <v>       0.32932424       0.84806784       0.54022657 </v>
   <v>       0.02161497       0.99783015       0.61777084 </v>
   <v>       0.52071750       0.99564525       0.62357469 </v>
   <v>       0.02014053       0.49507951       0.61904027 </v>
   <v>       0.52486440       0.49129191       0.61509621 </v>
   <v>       0.03809935       0.00015315       0.67871421 </v>
   <v>       0.04109260       0.00067289       0.71644127 </v>
  </varray>
  <varray name="selective"  type="logical" >
   <v type="logical" >  F  F  F </v>
   <v type="logical" >  F  F  F </v>
   <v type="logical" >  F  F  F </v>
   <v type="logical" >  F  F  F </v>
   <v type="logical" >  F  F  F </v>
   <v type="logical" >  F  F  F </v>
   <v type="logical" >  F  F  F </v>
   <v type="logical" >  F  F  F </v>
   <v type="logical" >  T  T  T </v>
   <v type="logical" >  T  T  T </v>
   <v type="logical" >  T  T  T </v>
   <v type="logical" >  T  T  T </v>
   <v type="logical" >  T  T  T </v>
   <v type="logical" >  T  T  T </v>
   <v type="logical" >  T  T  T </v>
   <v type="logical" >  T  T  T </v>
   <v type="logical" >  T  T  T </v>
   <v type="logical" >  T  T  T </v>
  </varray>
  <nose>
   <v>      -3.00000000       0.00000000       0.00010000       0.00010000 </v>
  </nose>
 </structure>
</modeling>
