Cu-Ag alloy CO adsorption (RPBE, matches
            1
     5.610892    0.000000    0.000000
     2.805446    4.859175    0.000000
     0.000000    0.000000   30.871912
   Cu   Ag   Cu   Ag   Cu   Ag   Cu   Ag   C    O 
     1     3     1     3     1     3     1     3     1     1
Direct configuration=     1
   0.00000000  0.00000000  0.38870285
   0.50000000  0.00000000  0.38870285
   0.00000000  0.50000000  0.38870285
   0.50000000  0.50000000  0.38870285
   0.16666667  0.16666667  0.46290095
   0.66666667  0.16666667  0.46290095
   0.16666667  0.66666667  0.46290095
   0.66666667  0.66666667  0.46290095
   0.83333333  0.33333333  0.53709905
   0.33333333  0.33333333  0.53709905
   0.83333333  0.83333333  0.53709905
   0.33333333  0.83333333  0.53709905
   0.00000000  0.00000000  0.61129715
   0.50000000  0.00000000  0.61129715
   0.00000000  0.50000000  0.61129715
   0.50000000  0.50000000  0.61129715
   0.16666667  0.16666667  0.66960258
   0.16666667  0.16666667  0.70620543
Direct configuration=     2
   0.00000000  0.00000000  0.38870285
   0.50000000  0.00000000  0.38870285
   0.00000000  0.50000000  0.38870285
   0.50000000  0.50000000  0.38870285
   0.16666667  0.16666667  0.46290095
   0.66666667  0.16666667  0.46290095
   0.16666667  0.66666667  0.46290095
   0.66666667  0.66666667  0.46290095
   0.83543899  0.33134132  0.53684362
   0.33215806  0.33213627  0.53635761
   0.83429223  0.83433120  0.53767149
   0.33003834  0.83679842  0.53685995
   0.99967616  0.00155668  0.61147619
   0.50232082  0.99892346  0.61271826
   0.99787185  0.50133413  0.61224494
   0.50216538  0.49899087  0.61196504
   0.16512157  0.16480959  0.66246220
   0.16668110  0.16682531  0.71307544
Direct configuration=     3
   0.00000000  0.00000000  0.38870285
   0.50000000  0.00000000  0.38870285
   0.00000000  0.50000000  0.38870285
   0.50000000  0.50000000  0.38870285
   0.16666667  0.16666667  0.46290095
   0.66666667  0.16666667  0.46290095
   0.16666667  0.66666667  0.46290095
   0.66666667  0.66666667  0.46290095
   0.83406804  0.33263827  0.53700992
   0.33292325  0.33291565  0.53684034
   0.83366792  0.83368151  0.53729879
   0.33218363  0.83454238  0.53701562
   0.99988700  0.00054316  0.61135962
   0.50080979  0.99962437  0.61179301
   0.99925744  0.50046551  0.61162786
   0.50075555  0.49964789  0.61153019
   0.16612755  0.16601869  0.66711114
   0.16667170  0.16672202  0.70860253
Direct configuration=     4
   0.00000000  0.00000000  0.38870285
   0.50000000  0.00000000  0.38870285
   0.00000000  0.50000000  0.38870285
   0.50000000  0.50000000  0.38870285
   0.16666667  0.16666667  0.46290095
   0.66666667  0.16666667  0.46290095
   0.16666667  0.66666667  0.46290095
   0.66666667  0.66666667  0.46290095
   0.83364997  0.33303379  0.53706064
   0.33315660  0.33315333  0.53698756
   0.83347753  0.83348339  0.53718513
   0.33283785  0.83385439  0.53706310
   0.99995130  0.00023408  0.61132407
   0.50034899  0.99983812  0.61151085
   0.99967998  0.50020062  0.61143967
   0.50032562  0.49984825  0.61139758
   0.16643432  0.16638741  0.66852885
   0.16666884  0.16669052  0.70723850
Direct configuration=     5
   0.00000000  0.00000000  0.38870285
   0.50000000  0.00000000  0.38870285
   0.00000000  0.50000000  0.38870285
   0.50000000  0.50000000  0.38870285
   0.16666667  0.16666667  0.46290095
   0.66666667  0.16666667  0.46290095
   0.16666667  0.66666667  0.46290095
   0.66666667  0.66666667  0.46290095
   0.83357012  0.33310932  0.53707033
   0.33320117  0.33319872  0.53701567
   0.83344117  0.83344555  0.53716342
   0.33296280  0.83372300  0.53707216
   0.99996358  0.00017506  0.61131728
   0.50026099  0.99987894  0.61145696
   0.99976068  0.50015003  0.61140373
   0.50024351  0.49988652  0.61137226
   0.16649291  0.16645783  0.66879961
   0.16666829  0.16668451  0.70697799
Direct configuration=     6
   0.00000000  0.00000000  0.38870285
   0.50000000  0.00000000  0.38870285
   0.00000000  0.50000000  0.38870285
   0.50000000  0.50000000  0.38870285
   0.16666667  0.16666667  0.46290095
   0.66666667  0.16666667  0.46290095
   0.16666667  0.66666667  0.46290095
   0.66666667  0.66666667  0.46290095
   0.83355459  0.33312402  0.53707221
   0.33320984  0.33320755  0.53702114
   0.83343409  0.83343819  0.53715920
   0.33298710  0.83369744  0.53707393
   0.99996597  0.00016357  0.61131596
   0.50024387  0.99988688  0.61144648
   0.99977638  0.50014019  0.61139674
   0.50022753  0.49989396  0.61136733
   0.16650431  0.16647153  0.66885229
   0.16666818  0.16668334  0.70692731
Direct configuration=     7
   0.00000000  0.00000000  0.38870285
   0.50000000  0.00000000  0.38870285
   0.00000000  0.50000000  0.38870285
   0.50000000  0.50000000  0.38870285
   0.16666667  0.16666667  0.46290095
   0.66666667  0.16666667  0.46290095
   0.16666667  0.66666667  0.46290095
   0.66666667  0.66666667  0.46290095
   0.83526247  0.33149970  0.53686023
   0.33225122  0.33226406  0.53642739
   0.83419679  0.83428286  0.53768056
   0.33032080  0.83651079  0.53689505
   0.99988497  0.00165290  0.61154762
   0.50203935  0.99910085  0.61266731
   0.99812682  0.50112008  0.61222679
   0.50199875  0.49903617  0.61191257
   0.16506398  0.16476489  0.66865862
   0.16667149  0.16681348  0.70672705
Direct configuration=     8
   0.00000000  0.00000000  0.38870285
   0.50000000  0.00000000  0.38870285
   0.00000000  0.50000000  0.38870285
   0.50000000  0.50000000  0.38870285
   0.16666667  0.16666667  0.46290095
   0.66666667  0.16666667  0.46290095
   0.16666667  0.66666667  0.46290095
   0.66666667  0.66666667  0.46290095
   0.83987551  0.32711237  0.53628765
   0.32966197  0.32971565  0.53482365
   0.83625685  0.83656434  0.53908879
   0.32311904  0.84410975  0.53641191
   0.99966619  0.00567561  0.61217333
   0.50688900  0.99697778  0.61596480
   0.99367130  0.50376682  0.61446878
   0.50678288  0.49671923  0.61338526
   0.16117361  0.16015521  0.66813552
   0.16668040  0.16716499  0.70618615
Direct configuration=     9
   0.00000000  0.00000000  0.38870285
   0.50000000  0.00000000  0.38870285
   0.00000000  0.50000000  0.38870285
   0.50000000  0.50000000  0.38870285
   0.16666667  0.16666667  0.46290095
   0.66666667  0.16666667  0.46290095
   0.16666667  0.66666667  0.46290095
   0.66666667  0.66666667  0.46290095
   0.84070969  0.32631900  0.53618411
   0.32919375  0.32925482  0.53453364
   0.83662937  0.83697690  0.53934344
   0.32181674  0.84548388  0.53632454
   0.99962663  0.00640304  0.61228648
   0.50776597  0.99659386  0.61656109
   0.99286561  0.50424543  0.61487420
   0.50764799  0.49630025  0.61365157
   0.16047011  0.15932164  0.66804093
   0.16668202  0.16722855  0.70608834
Direct configuration=    10
   0.00000000  0.00000000  0.38870285
   0.50000000  0.00000000  0.38870285
   0.00000000  0.50000000  0.38870285
   0.50000000  0.50000000  0.38870285
   0.16666667  0.16666667  0.46290095
   0.66666667  0.16666667  0.46290095
   0.16666667  0.66666667  0.46290095
   0.66666667  0.66666667  0.46290095
   0.84044847  0.32710831  0.53600589
   0.32791342  0.33015189  0.53513473
   0.83455936  0.83741512  0.54051400
   0.32325594  0.84505870  0.53687475
   0.00158131  0.00840731  0.61310704
   0.50858224  0.99814889  0.61811536
   0.99621939  0.50440567  0.61587756
   0.50604646  0.49573344  0.61386459
   0.15709816  0.15485447  0.66770994
   0.16589719  0.16716503  0.70569187
Direct configuration=    11
   0.00000000  0.00000000  0.38870285
   0.50000000  0.00000000  0.38870285
   0.00000000  0.50000000  0.38870285
   0.50000000  0.50000000  0.38870285
   0.16666667  0.16666667  0.46290095
   0.66666667  0.16666667  0.46290095
   0.16666667  0.66666667  0.46290095
   0.66666667  0.66666667  0.46290095
   0.83966483  0.32947622  0.53547122
   0.32407243  0.33284311  0.53693801
   0.82834932  0.83872977  0.54402571
   0.32757354  0.84378315  0.53852538
   0.00744535  0.01442011  0.61556875
   0.51103103  0.00281399  0.62277818
   0.00628076  0.50488640  0.61888766
   0.50124187  0.49403300  0.61450364
   0.14698230  0.14145295  0.66671697
   0.16354270  0.16697448  0.70450247
Direct configuration=    12
   0.00000000  0.00000000  0.38870285
   0.50000000  0.00000000  0.38870285
   0.00000000  0.50000000  0.38870285
   0.50000000  0.50000000  0.38870285
   0.16666667  0.16666667  0.46290095
   0.66666667  0.16666667  0.46290095
   0.16666667  0.66666667  0.46290095
   0.66666667  0.66666667  0.46290095
   0.83812173  0.33077188  0.53556032
   0.32314641  0.33561664  0.53798634
   0.82759132  0.84024571  0.54528821
   0.32813002  0.84109335  0.53928017
   0.01002447  0.01597172  0.61695944
   0.51830424  0.99834339  0.62403049
   0.00443853  0.50991984  0.61975509
   0.50443743  0.49724858  0.61437903
   0.13956227  0.13464249  0.66709890
   0.16042920  0.16538631  0.70404070
Direct configuration=    13
   0.00000000  0.00000000  0.38870285
   0.50000000  0.00000000  0.38870285
   0.00000000  0.50000000  0.38870285
   0.50000000  0.50000000  0.38870285
   0.16666667  0.16666667  0.46290095
   0.66666667  0.16666667  0.46290095
   0.16666667  0.66666667  0.46290095
   0.66666667  0.66666667  0.46290095
   0.83802993  0.33084896  0.53556563
   0.32309132  0.33578165  0.53804871
   0.82754622  0.84033590  0.54536332
   0.32816313  0.84093333  0.53932508
   0.01017791  0.01606403  0.61704218
   0.51873696  0.99807742  0.62410500
   0.00432893  0.51021930  0.61980669
   0.50462755  0.49743989  0.61437162
   0.13912081  0.13423731  0.66712163
   0.16024397  0.16529183  0.70401323
Direct configuration=    14
   0.00000000  0.00000000  0.38870285
   0.50000000  0.00000000  0.38870285
   0.00000000  0.50000000  0.38870285
   0.50000000  0.50000000  0.38870285
   0.16666667  0.16666667  0.46290095
   0.66666667  0.16666667  0.46290095
   0.16666667  0.66666667  0.46290095
   0.66666667  0.66666667  0.46290095
   0.83760756  0.33117922  0.53560788
   0.32288181  0.33648435  0.53833652
   0.82741301  0.84088112  0.54567269
   0.32819195  0.84028109  0.53951799
   0.01081633  0.01635177  0.61740878
   0.52079249  0.99688968  0.62441323
   0.00385219  0.51160000  0.62002773
   0.50575233  0.49835869  0.61432613
   0.13683096  0.13212526  0.66701396
   0.15940579  0.16497937  0.70419708
Direct configuration=    15
   0.00000000  0.00000000  0.38870285
   0.50000000  0.00000000  0.38870285
   0.00000000  0.50000000  0.38870285
   0.50000000  0.50000000  0.38870285
   0.16666667  0.16666667  0.46290095
   0.66666667  0.16666667  0.46290095
   0.16666667  0.66666667  0.46290095
   0.66666667  0.66666667  0.46290095
   0.83751187  0.33125404  0.53561746
   0.32283434  0.33664355  0.53840173
   0.82738283  0.84100464  0.54574278
   0.32819848  0.84013332  0.53956169
   0.01096097  0.01641696  0.61749183
   0.52125818  0.99662059  0.62448306
   0.00374418  0.51191281  0.62007781
   0.50600716  0.49856685  0.61431582
   0.13631217  0.13164676  0.66698957
   0.15921590  0.16490858  0.70423873
Direct configuration=    16
   0.00000000  0.00000000  0.38870285
   0.50000000  0.00000000  0.38870285
   0.00000000  0.50000000  0.38870285
   0.50000000  0.50000000  0.38870285
   0.16666667  0.16666667  0.46290095
   0.66666667  0.16666667  0.46290095
   0.16666667  0.66666667  0.46290095
   0.66666667  0.66666667  0.46290095
   0.83749859  0.33124657  0.53563766
   0.32285926  0.33659659  0.53842146
   0.82742658  0.84119864  0.54572726
   0.32807390  0.84023618  0.53955705
   0.01089212  0.01624525  0.61748174
   0.52135629  0.99672618  0.62448337
   0.00388544  0.51191366  0.62008466
   0.50632081  0.49861783  0.61430587
   0.13608817  0.13150216  0.66705139
   0.15900752  0.16477522  0.70430136
Direct configuration=    17
   0.00000000  0.00000000  0.38870285
   0.50000000  0.00000000  0.38870285
   0.00000000  0.50000000  0.38870285
   0.50000000  0.50000000  0.38870285
   0.16666667  0.16666667  0.46290095
   0.66666667  0.16666667  0.46290095
   0.16666667  0.66666667  0.46290095
   0.66666667  0.66666667  0.46290095
   0.83745874  0.33122415  0.53569828
   0.32293400  0.33645572  0.53848066
   0.82755782  0.84178061  0.54568069
   0.32770015  0.84054478  0.53954312
   0.01068555  0.01573010  0.61745146
   0.52165060  0.99704296  0.62448430
   0.00430923  0.51191621  0.62010524
   0.50726178  0.49877078  0.61427601
   0.13541614  0.13106837  0.66723684
   0.15838240  0.16437516  0.70448923
Direct configuration=    18
   0.00000000  0.00000000  0.38870285
   0.50000000  0.00000000  0.38870285
   0.00000000  0.50000000  0.38870285
   0.50000000  0.50000000  0.38870285
   0.16666667  0.16666667  0.46290095
   0.66666667  0.16666667  0.46290095
   0.16666667  0.66666667  0.46290095
   0.66666667  0.66666667  0.46290095
   0.83737904  0.33117933  0.53581951
   0.32308349  0.33617397  0.53859905
   0.82782030  0.84294455  0.54558757
   0.32695266  0.84116198  0.53951526
   0.01027242  0.01469982  0.61739090
   0.52223922  0.99767651  0.62448615
   0.00515679  0.51192133  0.62014639
   0.50914370  0.49907667  0.61421628
   0.13407209  0.13020080  0.66760774
   0.15713215  0.16357505  0.70486497
Direct configuration=    19
   0.00000000  0.00000000  0.38870285
   0.50000000  0.00000000  0.38870285
   0.00000000  0.50000000  0.38870285
   0.50000000  0.50000000  0.38870285
   0.16666667  0.16666667  0.46290095
   0.66666667  0.16666667  0.46290095
   0.16666667  0.66666667  0.46290095
   0.66666667  0.66666667  0.46290095
   0.83721965  0.33108967  0.53606198
   0.32338247  0.33561048  0.53883583
   0.82834526  0.84527245  0.54540131
   0.32545766  0.84239638  0.53945953
   0.00944614  0.01263926  0.61726979
   0.52341647  0.99894362  0.62448987
   0.00685193  0.51193155  0.62022869
   0.51290755  0.49968845  0.61409682
   0.13138399  0.12846564  0.66834954
   0.15463165  0.16197481  0.70561646
Direct configuration=    20
   0.00000000  0.00000000  0.38870285
   0.50000000  0.00000000  0.38870285
   0.00000000  0.50000000  0.38870285
   0.50000000  0.50000000  0.38870285
   0.16666667  0.16666667  0.46290095
   0.66666667  0.16666667  0.46290095
   0.16666667  0.66666667  0.46290095
   0.66666667  0.66666667  0.46290095
   0.83690085  0.33091037  0.53654692
   0.32398043  0.33448349  0.53930940
   0.82939518  0.84992823  0.54502879
   0.32246768  0.84486519  0.53934809
   0.00779360  0.00851813  0.61702756
   0.52577097  0.00147783  0.62449729
   0.01024219  0.51195200  0.62039328
   0.52043525  0.50091201  0.61385791
   0.12600779  0.12499533  0.66983314
   0.14963064  0.15877435  0.70711943
Direct configuration=    21
   0.00000000  0.00000000  0.38870285
   0.50000000  0.00000000  0.38870285
   0.00000000  0.50000000  0.38870285
   0.50000000  0.50000000  0.38870285
   0.16666667  0.16666667  0.46290095
   0.66666667  0.16666667  0.46290095
   0.16666667  0.66666667  0.46290095
   0.66666667  0.66666667  0.46290095
   0.83681477  0.33117560  0.53661482
   0.32389312  0.33460030  0.53936238
   0.82944009  0.85026375  0.54493767
   0.32240926  0.84518175  0.53930773
   0.00809585  0.00809299  0.61710060
   0.52557047  0.00222931  0.62451079
   0.01132887  0.51159897  0.62042592
   0.52139120  0.50111475  0.61382089
   0.12517469  0.12438796  0.67019311
   0.14845171  0.15790445  0.70719647
Direct configuration=    22
   0.00000000  0.00000000  0.38870285
   0.50000000  0.00000000  0.38870285
   0.00000000  0.50000000  0.38870285
   0.50000000  0.50000000  0.38870285
   0.16666667  0.16666667  0.46290095
   0.66666667  0.16666667  0.46290095
   0.16666667  0.66666667  0.46290095
   0.66666667  0.66666667  0.46290095
   0.83679636  0.33123233  0.53662935
   0.32387444  0.33462529  0.53937371
   0.82944969  0.85033552  0.54491818
   0.32239677  0.84524947  0.53929909
   0.00816051  0.00800205  0.61711623
   0.52552758  0.00239006  0.62451368
   0.01156133  0.51152346  0.62043290
   0.52159569  0.50115812  0.61381297
   0.12499648  0.12425803  0.67027011
   0.14819952  0.15771837  0.70721295
Direct configuration=    23
   0.00000000  0.00000000  0.38870285
   0.50000000  0.00000000  0.38870285
   0.00000000  0.50000000  0.38870285
   0.50000000  0.50000000  0.38870285
   0.16666667  0.16666667  0.46290095
   0.66666667  0.16666667  0.46290095
   0.16666667  0.66666667  0.46290095
   0.66666667  0.66666667  0.46290095
   0.83669119  0.33174321  0.53667734
   0.32362682  0.33502242  0.53939694
   0.82937306  0.85023931  0.54481482
   0.32274482  0.84543967  0.53924682
   0.00896685  0.00786698  0.61728740
   0.52488252  0.00329437  0.62453054
   0.01295934  0.51095601  0.62046469
   0.52219391  0.50134670  0.61378269
   0.12408682  0.12337756  0.67040345
   0.14699675  0.15689400  0.70742733
Direct configuration=    24
   0.00000000  0.00000000  0.38870285
   0.50000000  0.00000000  0.38870285
   0.00000000  0.50000000  0.38870285
   0.50000000  0.50000000  0.38870285
   0.16666667  0.16666667  0.46290095
   0.66666667  0.16666667  0.46290095
   0.16666667  0.66666667  0.46290095
   0.66666667  0.66666667  0.46290095
   0.83637568  0.33327584  0.53682131
   0.32288395  0.33621381  0.53946663
   0.82914317  0.84995069  0.54450474
   0.32378898  0.84601028  0.53908999
   0.01138589  0.00746179  0.61780090
   0.52294734  0.00600728  0.62458111
   0.01715338  0.50925366  0.62056004
   0.52398854  0.50191244  0.61369187
   0.12135782  0.12073614  0.67080346
   0.14338845  0.15442092  0.70807047
Direct configuration=    25
   0.00000000  0.00000000  0.38870285
   0.50000000  0.00000000  0.38870285
   0.00000000  0.50000000  0.38870285
   0.50000000  0.50000000  0.38870285
   0.16666667  0.16666667  0.46290095
   0.66666667  0.16666667  0.46290095
   0.16666667  0.66666667  0.46290095
   0.66666667  0.66666667  0.46290095
   0.83574466  0.33634110  0.53710927
   0.32139823  0.33859659  0.53960600
   0.82868339  0.84937344  0.54388456
   0.32587729  0.84715151  0.53877633
   0.01622397  0.00665139  0.61882792
   0.51907697  0.01143311  0.62468225
   0.02554147  0.50584898  0.62075076
   0.52757782  0.50304392  0.61351022
   0.11589984  0.11545331  0.67160347
   0.13617183  0.14947474  0.70935676
Direct configuration=    26
   0.00000000  0.00000000  0.38870285
   0.50000000  0.00000000  0.38870285
   0.00000000  0.50000000  0.38870285
   0.50000000  0.50000000  0.38870285
   0.16666667  0.16666667  0.46290095
   0.66666667  0.16666667  0.46290095
   0.16666667  0.66666667  0.46290095
   0.66666667  0.66666667  0.46290095
   0.83608111  0.33470676  0.53695574
   0.32219039  0.33732614  0.53953169
   0.82892854  0.84968122  0.54421523
   0.32476384  0.84654303  0.53894357
   0.01364441  0.00708348  0.61828033
   0.52114057  0.00854017  0.62462833
   0.02106911  0.50766429  0.62064907
   0.52566409  0.50244064  0.61360707
   0.11880992  0.11827001  0.67117692
   0.14001958  0.15211194  0.70867094
Direct configuration=    27
   0.00000000  0.00000000  0.38870285
   0.50000000  0.00000000  0.38870285
   0.00000000  0.50000000  0.38870285
   0.50000000  0.50000000  0.38870285
   0.16666667  0.16666667  0.46290095
   0.66666667  0.16666667  0.46290095
   0.16666667  0.66666667  0.46290095
   0.66666667  0.66666667  0.46290095
   0.83600363  0.33513936  0.53698786
   0.32199653  0.33770549  0.53954154
   0.82886420  0.84954280  0.54414423
   0.32507072  0.84667575  0.53890445
   0.01434300  0.00700134  0.61842218
   0.52070763  0.00915144  0.62464211
   0.02208510  0.50733466  0.62067350
   0.52610733  0.50259315  0.61358464
   0.11814291  0.11761937  0.67137534
   0.13896401  0.15132583  0.70874630
Direct configuration=    28
   0.00000000  0.00000000  0.38870285
   0.50000000  0.00000000  0.38870285
   0.00000000  0.50000000  0.38870285
   0.50000000  0.50000000  0.38870285
   0.16666667  0.16666667  0.46290095
   0.66666667  0.16666667  0.46290095
   0.16666667  0.66666667  0.46290095
   0.66666667  0.66666667  0.46290095
   0.83582615  0.33613040  0.53706146
   0.32155241  0.33857456  0.53956412
   0.82871681  0.84922571  0.54398158
   0.32577376  0.84697982  0.53881482
   0.01594342  0.00681317  0.61874715
   0.51971580  0.01055183  0.62467369
   0.02441267  0.50657950  0.62072945
   0.52712278  0.50294254  0.61353328
   0.11661482  0.11612879  0.67182989
   0.13654578  0.14952491  0.70891897
Direct configuration=    29
   0.00000000  0.00000000  0.38870285
   0.50000000  0.00000000  0.38870285
   0.00000000  0.50000000  0.38870285
   0.50000000  0.50000000  0.38870285
   0.16666667  0.16666667  0.46290095
   0.66666667  0.16666667  0.46290095
   0.16666667  0.66666667  0.46290095
   0.66666667  0.66666667  0.46290095
   0.83583548  0.33607832  0.53705759
   0.32157575  0.33852888  0.53956293
   0.82872456  0.84924237  0.54399013
   0.32573681  0.84696384  0.53881953
   0.01585930  0.00682306  0.61873007
   0.51976792  0.01047823  0.62467203
   0.02429034  0.50661919  0.62072651
   0.52706941  0.50292418  0.61353598
   0.11669513  0.11620713  0.67180600
   0.13667287  0.14961956  0.70890989
Direct configuration=    30
   0.00000000  0.00000000  0.38870285
   0.50000000  0.00000000  0.38870285
   0.00000000  0.50000000  0.38870285
   0.50000000  0.50000000  0.38870285
   0.16666667  0.16666667  0.46290095
   0.66666667  0.16666667  0.46290095
   0.16666667  0.66666667  0.46290095
   0.66666667  0.66666667  0.46290095
   0.83583595  0.33619197  0.53705620
   0.32156574  0.33869216  0.53955245
   0.82871827  0.84915490  0.54399457
   0.32580630  0.84699156  0.53881621
   0.01607170  0.00681905  0.61876291
   0.51988036  0.01039886  0.62467222
   0.02431876  0.50679853  0.62072986
   0.52716072  0.50296346  0.61353295
   0.11651630  0.11597279  0.67184060
   0.13635404  0.14938406  0.70895221
Direct configuration=    31
   0.00000000  0.00000000  0.38870285
   0.50000000  0.00000000  0.38870285
   0.00000000  0.50000000  0.38870285
   0.50000000  0.50000000  0.38870285
   0.16666667  0.16666667  0.46290095
   0.66666667  0.16666667  0.46290095
   0.16666667  0.66666667  0.46290095
   0.66666667  0.66666667  0.46290095
   0.83583734  0.33653294  0.53705203
   0.32153568  0.33918200  0.53952102
   0.82869939  0.84889248  0.54400787
   0.32601476  0.84707472  0.53880626
   0.01670889  0.00680703  0.61886141
   0.52021765  0.01016076  0.62467278
   0.02440402  0.50733656  0.62073992
   0.52743467  0.50308132  0.61352387
   0.11597982  0.11526975  0.67194437
   0.13539753  0.14867754  0.70907914
Direct configuration=    32
   0.00000000  0.00000000  0.38870285
   0.50000000  0.00000000  0.38870285
   0.00000000  0.50000000  0.38870285
   0.50000000  0.50000000  0.38870285
   0.16666667  0.16666667  0.46290095
   0.66666667  0.16666667  0.46290095
   0.16666667  0.66666667  0.46290095
   0.66666667  0.66666667  0.46290095
   0.83584013  0.33721488  0.53704368
   0.32147557  0.34016168  0.53945816
   0.82866164  0.84836765  0.54403448
   0.32643169  0.84724105  0.53878636
   0.01798328  0.00678300  0.61905842
   0.52089224  0.00968456  0.62467391
   0.02457453  0.50841262  0.62076004
   0.52798256  0.50331703  0.61350572
   0.11490684  0.11386368  0.67215193
   0.13348451  0.14726451  0.70933302
Direct configuration=    33
   0.00000000  0.00000000  0.38870285
   0.50000000  0.00000000  0.38870285
   0.00000000  0.50000000  0.38870285
   0.50000000  0.50000000  0.38870285
   0.16666667  0.16666667  0.46290095
   0.66666667  0.16666667  0.46290095
   0.16666667  0.66666667  0.46290095
   0.66666667  0.66666667  0.46290095
   0.83584571  0.33857875  0.53702699
   0.32135535  0.34212104  0.53933244
   0.82858613  0.84731798  0.54408770
   0.32726556  0.84757372  0.53874656
   0.02053204  0.00673493  0.61945243
   0.52224141  0.00873216  0.62467617
   0.02491557  0.51056473  0.62080028
   0.52907834  0.50378846  0.61346941
   0.11276090  0.11105153  0.67256704
   0.12965848  0.14443844  0.70984076
Direct configuration=    34
   0.00000000  0.00000000  0.38870285
   0.50000000  0.00000000  0.38870285
   0.00000000  0.50000000  0.38870285
   0.50000000  0.50000000  0.38870285
   0.16666667  0.16666667  0.46290095
   0.66666667  0.16666667  0.46290095
   0.16666667  0.66666667  0.46290095
   0.66666667  0.66666667  0.46290095
   0.83585688  0.34130650  0.53699360
   0.32111490  0.34603976  0.53908099
   0.82843512  0.84521865  0.54419414
   0.32893328  0.84823904  0.53866695
   0.02562957  0.00663879  0.62024047
   0.52493977  0.00682736  0.62468069
   0.02559764  0.51486895  0.62088077
   0.53126990  0.50473131  0.61339679
   0.10846900  0.10542723  0.67339726
   0.12200642  0.13878630  0.71085625
Direct configuration=    35
   0.00000000  0.00000000  0.38870285
   0.50000000  0.00000000  0.38870285
   0.00000000  0.50000000  0.38870285
   0.50000000  0.50000000  0.38870285
   0.16666667  0.16666667  0.46290095
   0.66666667  0.16666667  0.46290095
   0.16666667  0.66666667  0.46290095
   0.66666667  0.66666667  0.46290095
   0.83584943  0.33948561  0.53701589
   0.32127541  0.34342386  0.53924884
   0.82853592  0.84662004  0.54412309
   0.32782001  0.84779491  0.53872009
   0.02222676  0.00670297  0.61971442
   0.52313851  0.00809889  0.62467767
   0.02514233  0.51199571  0.62082704
   0.52980694  0.50410192  0.61344526
   0.11133402  0.10918168  0.67284305
   0.12711449  0.14255934  0.71017837
Direct configuration=    36
   0.00000000  0.00000000  0.38870285
   0.50000000  0.00000000  0.38870285
   0.00000000  0.50000000  0.38870285
   0.50000000  0.50000000  0.38870285
   0.16666667  0.16666667  0.46290095
   0.66666667  0.16666667  0.46290095
   0.16666667  0.66666667  0.46290095
   0.66666667  0.66666667  0.46290095
   0.83592321  0.33969273  0.53700094
   0.32140577  0.34377412  0.53921751
   0.82853693  0.84650347  0.54415543
   0.32784374  0.84799715  0.53872379
   0.02273096  0.00667324  0.61975308
   0.52357799  0.00784700  0.62467785
   0.02511717  0.51260945  0.62083989
   0.53008138  0.50408880  0.61344206
   0.11087651  0.10856810  0.67304105
   0.12615463  0.14179608  0.71024480
Direct configuration=    37
   0.00000000  0.00000000  0.38870285
   0.50000000  0.00000000  0.38870285
   0.00000000  0.50000000  0.38870285
   0.50000000  0.50000000  0.38870285
   0.16666667  0.16666667  0.46290095
   0.66666667  0.16666667  0.46290095
   0.16666667  0.66666667  0.46290095
   0.66666667  0.66666667  0.46290095
   0.83601176  0.33994127  0.53698299
   0.32156221  0.34419445  0.53917991
   0.82853813  0.84636358  0.54419424
   0.32787222  0.84823983  0.53872824
   0.02333601  0.00663757  0.61979946
   0.52410537  0.00754472  0.62467807
   0.02508699  0.51334594  0.62085531
   0.53041070  0.50407306  0.61343821
   0.11032751  0.10783179  0.67327865
   0.12500279  0.14088018  0.71032450
Direct configuration=    38
   0.00000000  0.00000000  0.38870285
   0.50000000  0.00000000  0.38870285
   0.00000000  0.50000000  0.38870285
   0.50000000  0.50000000  0.38870285
   0.16666667  0.16666667  0.46290095
   0.66666667  0.16666667  0.46290095
   0.16666667  0.66666667  0.46290095
   0.66666667  0.66666667  0.46290095
   0.83598282  0.33986003  0.53698886
   0.32151107  0.34405705  0.53919220
   0.82853774  0.84640930  0.54418156
   0.32786291  0.84816050  0.53872678
   0.02313824  0.00664923  0.61978430
   0.52393298  0.00764353  0.62467800
   0.02509686  0.51310520  0.62085027
   0.53030305  0.50407821  0.61343947
   0.11050696  0.10807247  0.67320099
   0.12537929  0.14117956  0.71029845
Direct configuration=    39
   0.00000000  0.00000000  0.38870285
   0.50000000  0.00000000  0.38870285
   0.00000000  0.50000000  0.38870285
   0.50000000  0.50000000  0.38870285
   0.16666667  0.16666667  0.46290095
   0.66666667  0.16666667  0.46290095
   0.16666667  0.66666667  0.46290095
   0.66666667  0.66666667  0.46290095
   0.83613275  0.33988376  0.53696428
   0.32179964  0.34418443  0.53916693
   0.82856071  0.84649395  0.54422621
   0.32767406  0.84847840  0.53874571
   0.02343818  0.00662324  0.61975494
   0.52438908  0.00746033  0.62467778
   0.02500226  0.51366638  0.62086486
   0.53055030  0.50391286  0.61344277
   0.11010910  0.10748968  0.67332473
   0.12459467  0.14058922  0.71044267
Direct configuration=    40
   0.00000000  0.00000000  0.38870285
   0.50000000  0.00000000  0.38870285
   0.00000000  0.50000000  0.38870285
   0.50000000  0.50000000  0.38870285
   0.16666667  0.16666667  0.46290095
   0.66666667  0.16666667  0.46290095
   0.16666667  0.66666667  0.46290095
   0.66666667  0.66666667  0.46290095
   0.83658253  0.33995495  0.53689056
   0.32266533  0.34456656  0.53909111
   0.82862964  0.84674788  0.54436017
   0.32710752  0.84943209  0.53880250
   0.02433801  0.00654526  0.61966687
   0.52575738  0.00691073  0.62467714
   0.02471846  0.51534990  0.62090864
   0.53129206  0.50341682  0.61345266
   0.10891552  0.10574130  0.67369597
   0.12224082  0.13881820  0.71087532
Direct configuration=    41
   0.00000000  0.00000000  0.38870285
   0.50000000  0.00000000  0.38870285
   0.00000000  0.50000000  0.38870285
   0.50000000  0.50000000  0.38870285
   0.16666667  0.16666667  0.46290095
   0.66666667  0.16666667  0.46290095
   0.16666667  0.66666667  0.46290095
   0.66666667  0.66666667  0.46290095
   0.83748211  0.34009733  0.53674312
   0.32439671  0.34533082  0.53893947
   0.82876751  0.84725576  0.54462808
   0.32597443  0.85133947  0.53891606
   0.02613768  0.00638930  0.61949074
   0.52849397  0.00581155  0.62467585
   0.02415086  0.51871696  0.62099618
   0.53277559  0.50242474  0.61347244
   0.10652836  0.10224454  0.67443844
   0.11753310  0.13527616  0.71174063
Direct configuration=    42
   0.00000000  0.00000000  0.38870285
   0.50000000  0.00000000  0.38870285
   0.00000000  0.50000000  0.38870285
   0.50000000  0.50000000  0.38870285
   0.16666667  0.16666667  0.46290095
   0.66666667  0.16666667  0.46290095
   0.16666667  0.66666667  0.46290095
   0.66666667  0.66666667  0.46290095
   0.83791250  0.34016545  0.53667257
   0.32522508  0.34569648  0.53886692
   0.82883347  0.84749874  0.54475626
   0.32543231  0.85225204  0.53897040
   0.02699872  0.00631468  0.61940646