       N       E                     dE             d eps       ncg     rms          rms(c)
DAV:   1     0.341489274774E+04    0.34149E+04   -0.14882E+05  1422   0.162E+03
DAV:   2     0.220329613045E+03   -0.31946E+04   -0.30842E+04  1422   0.394E+02
DAV:   3    -0.112458491536E+03   -0.33279E+03   -0.31156E+03  1493   0.183E+02
DAV:   4    -0.131588666770E+03   -0.19130E+02   -0.18495E+02  1548   0.561E+01
DAV:   5    -0.132212770120E+03   -0.62410E+00   -0.61940E+00  1628   0.837E+00    0.400E+01
DAV:   6    -0.118785569812E+03    0.13427E+02   -0.30101E+02  1620   0.115E+02    0.210E+01
DAV:   7    -0.107975168074E+03    0.10810E+02   -0.53349E+01  1690   0.655E+01    0.551E+00
DAV:   8    -0.108131270131E+03   -0.15610E+00   -0.93043E+00  1620   0.346E+01    0.251E+00
DAV:   9    -0.108271428848E+03   -0.14016E+00   -0.30595E+00  1639   0.101E+01    0.398E+00
DAV:  10    -0.108072031456E+03    0.19940E+00   -0.24909E+00  1546   0.103E+01    0.205E+00
DAV:  11    -0.108008005002E+03    0.64026E-01   -0.14350E-01  1636   0.289E+00    0.128E+00
DAV:  12    -0.107980598342E+03    0.27407E-01   -0.85405E-02  1612   0.222E+00    0.451E-01
DAV:  13    -0.107976275636E+03    0.43227E-02   -0.31771E-02  1658   0.154E+00    0.125E-01
DAV:  14    -0.107973792262E+03    0.24834E-02   -0.51250E-03  1632   0.618E-01    0.105E-01
DAV:  15    -0.107973652284E+03    0.13998E-03   -0.10711E-03  1662   0.428E-01    0.939E-02
DAV:  16    -0.107974090831E+03   -0.43855E-03   -0.24493E-04  1744   0.180E-01    0.795E-02
DAV:  17    -0.107974804368E+03   -0.71354E-03   -0.26662E-04  1568   0.274E-01    0.416E-02
DAV:  18    -0.107975634582E+03   -0.83021E-03   -0.55203E-04  1549   0.168E-01    0.239E-02
DAV:  19    -0.107976062009E+03   -0.42743E-03   -0.10494E-04  1584   0.795E-02    0.767E-03
DAV:  20    -0.107976388241E+03   -0.32623E-03   -0.30571E-05  1792   0.325E-02    0.437E-03
DAV:  21    -0.107976501663E+03   -0.11342E-03   -0.57919E-06  1237   0.115E-02    0.282E-03
DAV:  22    -0.107976629063E+03   -0.12740E-03   -0.53913E-06   992   0.840E-03    0.315E-03
DAV:  23    -0.107976674747E+03   -0.45684E-04   -0.25971E-06   968   0.104E-02    0.190E-03
DAV:  24    -0.107976714015E+03   -0.39268E-04   -0.19094E-06   958   0.577E-03    0.858E-04
DAV:  25    -0.107976720848E+03   -0.68330E-05   -0.25145E-07   870   0.287E-03    0.316E-04
DAV:  26    -0.107976724498E+03   -0.36500E-05   -0.12857E-07   866   0.142E-03    0.423E-04
DAV:  27    -0.107976724964E+03   -0.46607E-06   -0.39061E-08   843   0.178E-03
   1 F= -.10797672E+03 E0= -.10793791E+03  d E =-.107977E+03
       N       E                     dE             d eps       ncg     rms          rms(c)
DAV:   1    -0.107988665367E+03   -0.11941E-01   -0.72494E+00  1504   0.597E+00    0.154E-01
DAV:   2    -0.108001788458E+03   -0.13123E-01   -0.13422E-01  2086   0.153E+00    0.208E-01
DAV:   3    -0.108001568486E+03    0.21997E-03   -0.39049E-03  1534   0.747E-01    0.153E-01
DAV:   4    -0.108001436668E+03    0.13182E-03   -0.69331E-04  1560   0.431E-01    0.140E-01
DAV:   5    -0.108001083866E+03    0.35280E-03   -0.75345E-04  2566   0.278E-01    0.820E-02
DAV:   6    -0.108001020364E+03    0.63502E-04   -0.41093E-04  1670   0.611E-01    0.597E-02
DAV:   7    -0.108000952316E+03    0.68048E-04   -0.29660E-04  1974   0.394E-01    0.177E-02
DAV:   8    -0.108000961272E+03   -0.89554E-05   -0.14175E-04  2045   0.665E-02    0.124E-02
DAV:   9    -0.108000961760E+03   -0.48848E-06   -0.15117E-05  1413   0.318E-02    0.108E-02
DAV:  10    -0.108000960836E+03    0.92381E-06   -0.10877E-06   787   0.155E-02
   2 F= -.10800096E+03 E0= -.10796206E+03  d E =-.242359E-01
       N       E                     dE             d eps       ncg     rms          rms(c)
DAV:   1    -0.107929785025E+03    0.71177E-01   -0.65670E+01  1501   0.182E+01    0.509E-01
DAV:   2    -0.108055729757E+03   -0.12594E+00   -0.12933E+00  2078   0.505E+00    0.715E-01
DAV:   3    -0.108052086000E+03    0.36438E-02   -0.45202E-02  1470   0.283E+00    0.469E-01
DAV:   4    -0.108050949141E+03    0.11369E-02   -0.84897E-03  1698   0.112E+00    0.424E-01
DAV:   5    -0.108047722316E+03    0.32268E-02   -0.46371E-03  2256   0.686E-01    0.251E-01
DAV:   6    -0.108047008348E+03    0.71397E-03   -0.52889E-03  1662   0.197E+00    0.157E-01
DAV:   7    -0.108046490599E+03    0.51775E-03   -0.35034E-03  2390   0.123E+00    0.466E-02
DAV:   8    -0.108046586540E+03   -0.95941E-04   -0.12601E-03  1911   0.157E-01    0.438E-02
DAV:   9    -0.108046573895E+03    0.12645E-04   -0.27498E-05  1550   0.332E-02    0.352E-02
DAV:  10    -0.108046559713E+03    0.14182E-04   -0.24331E-05  2230   0.679E-02    0.214E-02
DAV:  11    -0.108046560089E+03   -0.37602E-06   -0.51455E-05  2262   0.943E-02    0.183E-02
DAV:  12    -0.108046558614E+03    0.14755E-05   -0.28218E-05  1515   0.766E-02    0.108E-02
DAV:  13    -0.108046557444E+03    0.11697E-05   -0.45174E-06  1374   0.209E-02    0.449E-03
DAV:  14    -0.108046557780E+03   -0.33563E-06   -0.14310E-06   923   0.121E-02
   3 F= -.10804656E+03 E0= -.10800738E+03  d E =-.698328E-01
       N       E                     dE             d eps       ncg     rms          rms(c)
DAV:   1    -0.107562707114E+03    0.48385E+00   -0.26935E+02  1541   0.384E+01    0.111E+00
DAV:   2    -0.108072925548E+03   -0.51022E+00   -0.52825E+00  2070   0.125E+01    0.165E+00
DAV:   3    -0.108049011409E+03    0.23914E-01   -0.23447E-01  1491   0.711E+00    0.894E-01
DAV:   4    -0.108046469574E+03    0.25418E-02   -0.52076E-02  1610   0.178E+00    0.819E-01
DAV:   5    -0.108035333086E+03    0.11136E-01   -0.15922E-02  1973   0.151E+00    0.503E-01
DAV:   6    -0.108031362734E+03    0.39704E-02   -0.26417E-02  2182   0.362E+00    0.239E-01
DAV:   7    -0.108029927976E+03    0.14348E-02   -0.99697E-03  2310   0.199E+00    0.102E-01
DAV:   8    -0.108030124533E+03   -0.19656E-03   -0.33983E-03  1920   0.364E-01    0.865E-02
DAV:   9    -0.108030074806E+03    0.49728E-04   -0.35777E-04  1478   0.226E-01    0.593E-02
DAV:  10    -0.108030055986E+03    0.18820E-04   -0.15275E-04  1868   0.160E-01    0.386E-02
DAV:  11    -0.108030070728E+03   -0.14742E-04   -0.22979E-04  2478   0.138E-01    0.356E-02
DAV:  12    -0.108030048437E+03    0.22290E-04   -0.81579E-05  1715   0.136E-01    0.720E-03
DAV:  13    -0.108030054239E+03   -0.58020E-05   -0.36297E-05  2030   0.453E-02    0.779E-03
DAV:  14    -0.108030056423E+03   -0.21840E-05   -0.83838E-06  1451   0.340E-02    0.161E-03
DAV:  15    -0.108030059981E+03   -0.35577E-05   -0.81868E-07   862   0.108E-02    0.103E-03
DAV:  16    -0.108030064275E+03   -0.42944E-05   -0.37543E-07   886   0.482E-03    0.849E-04
DAV:  17    -0.108030069505E+03   -0.52299E-05   -0.90217E-07   902   0.563E-03    0.164E-03
DAV:  18    -0.108030070024E+03   -0.51875E-06   -0.28056E-07   893   0.526E-03
   4 F= -.10803007E+03 E0= -.10799023E+03  d E =-.533451E-01
       N       E                     dE             d eps       ncg     rms          rms(c)
DAV:   1    -0.107877239860E+03    0.15283E+00   -0.97721E+01  1499   0.222E+01    0.693E-01
DAV:   2    -0.108072902203E+03   -0.19566E+00   -0.20192E+00  2128   0.839E+00    0.980E-01
DAV:   3    -0.108062781010E+03    0.10121E-01   -0.78627E-02  1555   0.521E+00    0.551E-01
DAV:   4    -0.108062508655E+03    0.27235E-03   -0.23447E-02  1598   0.180E+00    0.532E-01
DAV:   5    -0.108058424942E+03    0.40837E-02   -0.16109E-02  1664   0.166E+00    0.344E-01
DAV:   6    -0.108056669919E+03    0.17550E-02   -0.16591E-02  2126   0.171E+00    0.111E-01
DAV:   7    -0.108056779934E+03   -0.11001E-03   -0.25937E-03  2206   0.587E-01    0.957E-02
DAV:   8    -0.108056649923E+03    0.13001E-03   -0.88730E-04  1502   0.540E-01    0.327E-02
DAV:   9    -0.108056661367E+03   -0.11444E-04   -0.26841E-04  1864   0.101E-01    0.130E-02
DAV:  10    -0.108056662894E+03   -0.15264E-05   -0.40593E-05  1549   0.752E-02    0.807E-03
DAV:  11    -0.108056665770E+03   -0.28761E-05   -0.16031E-05  1704   0.298E-02    0.693E-03
DAV:  12    -0.108056666998E+03   -0.12281E-05   -0.28223E-06  1048   0.219E-02    0.293E-03
DAV:  13    -0.108056669311E+03   -0.23131E-05   -0.13567E-06   880   0.122E-02    0.134E-03
DAV:  14    -0.108056671753E+03   -0.24427E-05   -0.12686E-06   870   0.145E-02    0.239E-03
DAV:  15    -0.108056673261E+03   -0.15071E-05   -0.82750E-07   898   0.928E-03    0.618E-04
DAV:  16    -0.108056675670E+03   -0.24092E-05   -0.50382E-07   878   0.423E-03    0.103E-03
DAV:  17    -0.108056676751E+03   -0.10815E-05   -0.36504E-07   872   0.444E-03    0.458E-04
DAV:  18    -0.108056677285E+03   -0.53336E-06   -0.10999E-07   856   0.195E-03
   5 F= -.10805668E+03 E0= -.10801727E+03  d E =-.799523E-01
       N       E                     dE             d eps       ncg     rms          rms(c)
DAV:   1    -0.108056953549E+03   -0.27680E-03   -0.13019E+01  1520   0.779E+00    0.203E-01
DAV:   2    -0.108080898332E+03   -0.23945E-01   -0.24480E-01  2070   0.174E+00    0.263E-01
DAV:   3    -0.108080165370E+03    0.73296E-03   -0.33212E-03  1662   0.430E-01    0.202E-01
DAV:   4    -0.108079870449E+03    0.29492E-03   -0.70707E-04  1574   0.498E-01    0.169E-01
DAV:   5    -0.108079413953E+03    0.45650E-03   -0.64097E-04  2566   0.511E-01    0.108E-01
DAV:   6    -0.108079219632E+03    0.19432E-03   -0.10815E-03  2662   0.704E-01    0.467E-02
DAV:   7    -0.108079170227E+03    0.49405E-04   -0.40610E-04  2246   0.426E-01    0.212E-02
DAV:   8    -0.108079174431E+03   -0.42036E-05   -0.13239E-04  1630   0.962E-02    0.189E-02
DAV:   9    -0.108079170961E+03    0.34704E-05   -0.41530E-05  1586   0.526E-02    0.811E-03
DAV:  10    -0.108079171262E+03   -0.30175E-06   -0.10152E-05  1518   0.311E-02    0.527E-03
DAV:  11    -0.108079171175E+03    0.87719E-07   -0.30292E-06  1072   0.261E-02
   6 F= -.10807917E+03 E0= -.10803978E+03  d E =-.224939E-01
       N       E                     dE             d eps       ncg     rms          rms(c)
DAV:   1    -0.107891595755E+03    0.18758E+00   -0.11906E+02  1528   0.244E+01    0.676E-01
DAV:   2    -0.108134870334E+03   -0.24327E+00   -0.25116E+00  2054   0.540E+00    0.865E-01
DAV:   3    -0.108125149423E+03    0.97209E-02   -0.32488E-02  1792   0.206E+00    0.583E-01
DAV:   4    -0.108122731449E+03    0.24180E-02   -0.70858E-03  2011   0.119E+00    0.524E-01
DAV:   5    -0.108118791416E+03    0.39400E-02   -0.85453E-03  2062   0.251E+00    0.286E-01
DAV:   6    -0.108116591083E+03    0.22003E-02   -0.14156E-02  2659   0.188E+00    0.136E-01
DAV:   7    -0.108116502263E+03    0.88820E-04   -0.27646E-03  2139   0.931E-01    0.835E-02
DAV:   8    -0.108116447729E+03    0.54534E-04   -0.10926E-03  1614   0.266E-01    0.445E-02
DAV:   9    -0.108116440101E+03    0.76285E-05   -0.18755E-04  1507   0.971E-02    0.338E-02
DAV:  10    -0.108116432908E+03    0.71928E-05   -0.12024E-04  1774   0.135E-01    0.221E-02
DAV:  11    -0.108116429633E+03    0.32752E-05   -0.42835E-05  2250   0.665E-02    0.103E-02
DAV:  12    -0.108116429281E+03    0.35146E-06   -0.18088E-05  2102   0.340E-02    0.540E-03
DAV:  13    -0.108116430049E+03   -0.76770E-06   -0.16834E-06   920   0.165E-02
   7 F= -.10811643E+03 E0= -.10807717E+03  d E =-.597528E-01
       N       E                     dE             d eps       ncg     rms          rms(c)
DAV:   1    -0.108088471425E+03    0.27958E-01   -0.17918E+01  1512   0.914E+00    0.241E-01
DAV:   2    -0.108121683194E+03   -0.33212E-01   -0.34269E-01  2078   0.201E+00    0.319E-01
DAV:   3    -0.108120464658E+03    0.12185E-02   -0.41126E-03  1814   0.486E-01    0.235E-01
DAV:   4    -0.108120070289E+03    0.39437E-03   -0.87707E-04  1590   0.465E-01    0.199E-01
DAV:   5    -0.108119467334E+03    0.60295E-03   -0.87885E-04  2574   0.565E-01    0.131E-01
DAV:   6    -0.108119163125E+03    0.30421E-03   -0.15835E-03  2614   0.711E-01    0.475E-02
DAV:   7    -0.108119129817E+03    0.33308E-04   -0.46320E-04  2150   0.404E-01    0.232E-02
DAV:   8    -0.108119133779E+03   -0.39619E-05   -0.16448E-04  1507   0.739E-02    0.226E-02
DAV:   9    -0.108119127666E+03    0.61122E-05   -0.29626E-05  1592   0.424E-02    0.893E-03
DAV:  10    -0.108119129343E+03   -0.16770E-05   -0.14104E-05  1998   0.173E-02    0.537E-03
DAV:  11    -0.108119129064E+03    0.27940E-06   -0.28703E-06  1085   0.116E-02
   8 F= -.10811913E+03 E0= -.10807994E+03  d E =-.624518E-01
