 vasp.6.5.1 10Mar25 (build Mar 14 2026 15:48:08) complex                         
 executed on              LinuxNV date 2026.03.24  09:42:54
 running    1 mpi-ranks, with    1 threads/rank, on    1 nodes
 distrk:  each k-point on    1 cores,    1 groups
 distr:  one band on NCORE=   1 cores,    1 groups
 Offloading initialized ...    1 GPUs detected


--------------------------------------------------------------------------------------------------------


 INCAR:
   SYSTEM = Cu(100) coverage-dependent binding (RPBE)
   ENCUT = 450
   EDIFF = 1E-6
   ISMEAR = 0
   SIGMA = 0.1
   ALGO = Normal
   NELM = 200
   PREC = Normal
   GGA = RP
   IBRION = 2
   NSW = 300
   ISIF = 2
   EDIFFG = -0.03
   ISPIN = 1
   LREAL = Auto
   LORBIT = 11
   LWAVE = .FALSE.
   LCHARG = .FALSE.

 POTCAR:    PAW_PBE Cu 22Jun2005                  
 POTCAR:    PAW_PBE Cu 22Jun2005                  
   SHA256 =  0e71e558f37a4e8407882b4609ceaae59938afaad9ced71dfe8490308a0ab630 Cu/POTCAR             
   COPYR  = (c) Copyright 22Jun2005 Georg Kresse                                                    
   COPYR  = This file is part of the software VASP. Any use, copying, and all other rights are regul
   COPYR  = If you do not have a valid VASP license, you may not use, copy or distribute this file. 
   VRHFIN =Cu: d10 p1                                                                               
   LEXCH  = PE                                                                                      
   EATOM  =  1390.9808 eV,  102.2342 Ry                                                             
                                                                                                    
   TITEL  = PAW_PBE Cu 22Jun2005                                                                    
   LULTRA =        F    use ultrasoft PP ?                                                          
   IUNSCR =        1    unscreen: 0-lin 1-nonlin 2-no                                               
   RPACOR =    2.000    partial core radius                                                         
   POMASS =   63.546; ZVAL   =   11.000    mass and valenz                                          
   RCORE  =    2.300    outmost cutoff radius                                                       
   RWIGS  =    2.200; RWIGS  =    1.164    wigner-seitz radius (au A)                               
   ENMAX  =  295.446; ENMIN  =  221.585 eV                                                          
   ICORE  =        3    local potential                                                             
   LCOR   =        T    correct aug charges                                                         
   LPAW   =        T    paw PP                                                                      
   EAUG   =  586.980                                                                                
   DEXC   =    0.000                                                                                
   RMAX   =    2.344    core radius for proj-oper                                                   
   RAUG   =    1.300    factor for augmentation sphere                                              
   RDEP   =    2.302    radius for radial grids                                                     
   RDEPT  =    1.771    core radius for aug-charge                                                  
                                                                                                    
   Atomic configuration                                                                             
    9 entries                                                                                       
     n  l   j            E        occ.                                                              
     1  0  0.50     -8850.2468   2.0000                                                             
     2  0  0.50     -1062.3498   2.0000                                                             
     2  1  1.50      -916.8226   6.0000                                                             
     3  0  0.50      -114.6929   2.0000                                                             
     3  1  1.50       -72.1325   6.0000                                                             
     3  2  2.50        -5.0394  10.0000                                                             
     4  0  0.50        -4.6097   1.0000                                                             
     4  1  0.50        -4.0817   0.0000                                                             
     4  3  2.50        -1.3606   0.0000                                                             
   Description                                                                                      
     l       E           TYP  RCUT    TYP  RCUT                                                     
     2     -5.0393973     23  2.200                                                                 
     2     10.8846608     23  2.200                                                                 
     0     -4.6097109     23  2.200                                                                 
     0      8.2520465     23  2.200                                                                 
     1     -2.7211652     23  2.200                                                                 
     1     21.7055443     23  2.200                                                                 
     3      2.7211652     23  2.300                                                                 
  local pseudopotential read in
  partial core-charges read in
  partial kinetic energy density read in
  atomic valenz-charges read in
  non local Contribution for L=            2  read in
    real space projection operators read in
  non local Contribution for L=            2  read in
    real space projection operators read in
  non local Contribution for L=            0  read in
    real space projection operators read in
  non local Contribution for L=            0  read in
    real space projection operators read in
  non local Contribution for L=            1  read in
    real space projection operators read in
  non local Contribution for L=            1  read in
    real space projection operators read in
    PAW grid and wavefunctions read in
 
   number of l-projection  operators is LMAX  =            6
   number of lm-projection operators is LMMAX =           18
 
 Optimization of the real space projectors (new method)

 maximal supplied QI-value         = 16.25
 optimisation between [QCUT,QGAM] = [ 10.73, 21.61] = [ 32.22,130.83] Ry 
 Optimized for a Real-space Cutoff    1.42 Angstroem

   l    n(q)    QCUT    max X(q) W(low)/X(q) W(high)/X(q)  e(spline) 
   2      8    10.726     4.610    0.15E-03    0.25E-03    0.14E-06
   2      8    10.726     8.522    0.25E-03    0.43E-03    0.27E-06
   0      9    10.726    51.609    0.94E-04    0.10E-03    0.12E-06
   0      9    10.726    27.747    0.85E-04    0.96E-04    0.11E-06
   1      9    10.726    20.408    0.25E-03    0.14E-03    0.12E-06
   1      9    10.726    13.425    0.22E-03    0.13E-03    0.11E-06
 -----------------------------------------------------------------------------
|                                                                             |
|               ----> ADVICE to this user running VASP <----                  |
|                                                                             |
|     You enforced a specific xc type in the INCAR file but a different       |
|     type was found in the POTCAR file.                                      |
|     I HOPE YOU KNOW WHAT YOU ARE DOING!                                     |
|                                                                             |
 -----------------------------------------------------------------------------

  PAW_PBE Cu 22Jun2005                  :
 energy of atom  1       EATOM=-1390.9808
 kinetic energy error for atom=    0.0097 (will be added to EATOM!!)
 
 
 POSCAR: Cu
  positions in cartesian coordinates
  No initial velocities read in


 exchange-correlation table for RP
   RHO(1)=    0.500       N(1)  =     2000
   RHO(2)=  100.500       N(2)  =     4000
 


--------------------------------------------------------------------------------------------------------


 ion  position               nearest neighbor table
   1  0.167  0.167  0.408-  10 2.56  11 2.56  13 2.56  14 2.56   3 2.56   7 2.56   4 2.56   2 2.56

   2  0.500  0.167  0.408-  11 2.56  12 2.56  14 2.56  15 2.56   8 2.56   5 2.56   1 2.56   3 2.56

   3  0.833  0.167  0.408-  10 2.56  12 2.56  13 2.56  15 2.56   1 2.56   9 2.56   6 2.56   2 2.56

   4  0.167  0.500  0.408-  13 2.56  16 2.56  14 2.56  17 2.56   6 2.56   1 2.56   7 2.56   5 2.56

   5  0.500  0.500  0.408-  14 2.56  15 2.56  17 2.56  18 2.56   2 2.56   4 2.56   6 2.56   8 2.56

   6  0.833  0.500  0.408-  13 2.56  16 2.56  15 2.56  18 2.56   4 2.56   5 2.56   9 2.56   3 2.56

   7  0.167  0.833  0.408-  10 2.56  11 2.56  16 2.56  17 2.56   1 2.56   9 2.56   8 2.56   4 2.56

   8  0.500  0.833  0.408-  11 2.56  12 2.56  17 2.56  18 2.56   2 2.56   7 2.56   9 2.56   5 2.56

   9  0.833  0.833  0.408-  10 2.56  12 2.56  16 2.56  18 2.56   3 2.56   7 2.56   6 2.56   8 2.56

  10  0.000  0.000  0.469-   1 2.56   3 2.56   7 2.56   9 2.56  11 2.56  12 2.56  13 2.56  16 2.56
                            19 2.56  21 2.56  25 2.56  27 2.56
  11  0.333  0.000  0.469-   2 2.56   8 2.56   7 2.56   1 2.56  12 2.56  10 2.56  14 2.56  17 2.56
                            20 2.56  26 2.56  25 2.56  19 2.56
  12  0.667  0.000  0.469-   2 2.56   8 2.56   3 2.56   9 2.56  11 2.56  10 2.56  15 2.56  18 2.56
                            20 2.56  26 2.56  21 2.56  27 2.56
  13  0.000  0.333  0.469-   4 2.56   6 2.56   1 2.56   3 2.56  16 2.56  14 2.56  15 2.56  10 2.56
                            22 2.56  24 2.56  19 2.56  21 2.56
  14  0.333  0.333  0.469-   5 2.56   4 2.56   2 2.56   1 2.56  15 2.56  17 2.56  11 2.56  13 2.56
                            23 2.56  22 2.56  20 2.56  19 2.56
  15  0.667  0.333  0.469-   5 2.56   2 2.56   6 2.56   3 2.56  14 2.56  18 2.56  12 2.56  13 2.56
                            23 2.56  20 2.56  24 2.56  21 2.56
  16  0.000  0.667  0.469-   4 2.56   6 2.56   7 2.56   9 2.56  13 2.56  10 2.56  17 2.56  18 2.56
                            22 2.56  24 2.56  25 2.56  27 2.56
  17  0.333  0.667  0.469-   5 2.56   4 2.56   8 2.56   7 2.56  14 2.56  18 2.56  16 2.56  11 2.56
                            23 2.56  22 2.56  26 2.56  25 2.56
  18  0.667  0.667  0.469-   5 2.56   6 2.56   8 2.56   9 2.56  15 2.56  17 2.56  16 2.56  12 2.56
                            23 2.56  24 2.56  26 2.56  27 2.56
  19  0.167  0.167  0.531-  28 2.56  29 2.56  31 2.56  32 2.56  21 2.56  25 2.56  22 2.56  20 2.56
                            10 2.56  11 2.56  13 2.56  14 2.56
  20  0.500  0.167  0.531-  29 2.56  30 2.56  32 2.56  33 2.56  26 2.56  23 2.56  19 2.56  21 2.56
                            11 2.56  12 2.56  14 2.56  15 2.56
  21  0.833  0.167  0.531-  28 2.56  30 2.56  31 2.56  33 2.56  19 2.56  27 2.56  24 2.56  20 2.56
                            10 2.56  12 2.56  13 2.56  15 2.56
  22  0.167  0.500  0.531-  31 2.56  34 2.56  32 2.56  35 2.56  24 2.56  19 2.56  25 2.56  23 2.56
                            13 2.56  16 2.56  14 2.56  17 2.56
  23  0.500  0.500  0.531-  32 2.56  33 2.56  35 2.56  36 2.56  20 2.56  22 2.56  24 2.56  26 2.56
                            14 2.56  15 2.56  17 2.56  18 2.56
  24  0.833  0.500  0.531-  31 2.56  34 2.56  33 2.56  36 2.56  22 2.56  23 2.56  27 2.56  21 2.56
                            13 2.56  16 2.56  15 2.56  18 2.56
  25  0.167  0.833  0.531-  28 2.56  29 2.56  34 2.56  35 2.56  19 2.56  27 2.56  26 2.56  22 2.56
                            10 2.56  11 2.56  16 2.56  17 2.56
  26  0.500  0.833  0.531-  29 2.56  30 2.56  35 2.56  36 2.56  20 2.56  25 2.56  27 2.56  23 2.56
                            11 2.56  12 2.56  17 2.56  18 2.56
  27  0.833  0.833  0.531-  28 2.56  30 2.56  34 2.56  36 2.56  21 2.56  25 2.56  24 2.56  26 2.56
                            10 2.56  12 2.56  16 2.56  18 2.56
  28  0.000  0.000  0.592-  19 2.56  21 2.56  25 2.56  27 2.56  29 2.56  30 2.56  31 2.56  34 2.56

  29  0.333  0.000  0.592-  20 2.56  26 2.56  25 2.56  19 2.56  30 2.56  28 2.56  32 2.56  35 2.56

  30  0.667  0.000  0.592-  20 2.56  26 2.56  21 2.56  27 2.56  29 2.56  28 2.56  33 2.56  36 2.56

  31  0.000  0.333  0.592-  22 2.56  24 2.56  19 2.56  21 2.56  34 2.56  32 2.56  33 2.56  28 2.56

  32  0.333  0.333  0.592-  23 2.56  22 2.56  20 2.56  19 2.56  33 2.56  35 2.56  29 2.56  31 2.56

  33  0.667  0.333  0.592-  23 2.56  20 2.56  24 2.56  21 2.56  32 2.56  36 2.56  30 2.56  31 2.56

  34  0.000  0.667  0.592-  22 2.56  24 2.56  25 2.56  27 2.56  31 2.56  28 2.56  35 2.56  36 2.56

  35  0.333  0.667  0.592-  23 2.56  22 2.56  26 2.56  25 2.56  32 2.56  36 2.56  34 2.56  29 2.56

  36  0.667  0.667  0.592-  23 2.56  24 2.56  26 2.56  27 2.56  33 2.56  35 2.56  34 2.56  30 2.56

 
  LATTYP: Found a simple tetragonal cell.
 ALAT       =     7.6685730420
 C/A-ratio  =     3.8367633508
  
  Lattice vectors:
  
 A1 = (   7.6685730420,   0.0000000000,   0.0000000000)
 A2 = (   0.0000000000,   7.6685730420,   0.0000000000)
 A3 = (   0.0000000000,   0.0000000000,  29.4225000000)


Analysis of symmetry for initial positions (statically):
=====================================================================
 Subroutine PRICEL returns following result:
 
  LATTYP: Found a simple tetragonal cell.
 ALAT       =     2.5561910140
 C/A-ratio  =    11.5102900523
  
  Lattice vectors:
  
 A1 = (   2.5561910140,   0.0000000000,   0.0000000000)
 A2 = (   0.0000000000,   2.5561910140,   0.0000000000)
 A3 = (   0.0000000000,   0.0000000000,  29.4225000000)
 
   9 primitive cells build up your supercell.
 

 Routine SETGRP: Setting up the symmetry group for a 
 simple tetragonal supercell.


 Subroutine GETGRP returns: Found 16 space group operations
 (whereof  8 operations were pure point group operations)
 out of a pool of 16 trial point group operations.


The static configuration has the point symmetry C_4v.
 The point group associated with its full space group is D_4h.


Analysis of symmetry for dynamics (positions and initial velocities):
=====================================================================
 Subroutine PRICEL returns following result:
 
  LATTYP: Found a simple tetragonal cell.
 ALAT       =     2.5561910140
 C/A-ratio  =    11.5102900523
  
  Lattice vectors:
  
 A1 = (   2.5561910140,   0.0000000000,   0.0000000000)
 A2 = (   0.0000000000,   2.5561910140,   0.0000000000)
 A3 = (   0.0000000000,   0.0000000000,  29.4225000000)
 
   9 primitive cells build up your supercell.
 

 Routine SETGRP: Setting up the symmetry group for a 
 simple tetragonal supercell.


 Subroutine GETGRP returns: Found 16 space group operations
 (whereof  8 operations were pure point group operations)
 out of a pool of 16 trial point group operations.


The dynamic configuration has the point symmetry C_4v.
 The point group associated with its full space group is D_4h.


Analysis of constrained symmetry for selective dynamics:
=====================================================================
 Subroutine PRICEL returns following result:
 
  LATTYP: Found a simple tetragonal cell.
 ALAT       =     2.5561910140
 C/A-ratio  =    11.5102900523
  
  Lattice vectors:
  
 A1 = (   2.5561910140,   0.0000000000,   0.0000000000)
 A2 = (   0.0000000000,   2.5561910140,   0.0000000000)
 A3 = (   0.0000000000,   0.0000000000,  29.4225000000)
 
   9 primitive cells build up your supercell.
 

 Routine SETGRP: Setting up the symmetry group for a 
 simple tetragonal supercell.


 Subroutine GETGRP returns: Found  8 space group operations
 (whereof  8 operations were pure point group operations)
 out of a pool of 16 trial point group operations.


The constrained configuration has the point symmetry C_4v.


 Subroutine INISYM returns: Found  8 space group operations
 (whereof  8 operations are pure point group operations),
 and found     9 'primitive' translations


----------------------------------------------------------------------------------------

                                     Primitive cell                                     

  volume of cell :     192.2499

  direct lattice vectors                    reciprocal lattice vectors
     2.556191014  0.000000000  0.000000000     0.391207071  0.000000000  0.000000000
     0.000000000  2.556191014  0.000000000     0.000000000  0.391207071  0.000000000
     0.000000000  0.000000000 29.422500000     0.000000000  0.000000000  0.033987595

  length of vectors
     2.556191014  2.556191014 29.422500000     0.391207071  0.391207071  0.033987595

  position of ions in fractional coordinates (direct lattice)
     0.500000000  0.500000000  0.407851134
     0.000000000  0.000000000  0.469283711
     0.500000000  0.500000000  0.530716289
     0.000000000  0.000000000  0.592148866

  ion indices of the primitive-cell ions
   primitive index   ion index
                 1           1
                 2          10
                 3          19
                 4          28

----------------------------------------------------------------------------------------

 
 
 KPOINTS: Automatic mesh                          

Automatic generation of k-mesh.
 Grid dimensions read from file:
 generate k-points for:    3    3    1

 Generating k-lattice:

  Cartesian coordinates                     Fractional coordinates (reciprocal lattice)
     0.043467452  0.000000000  0.000000000     0.333333333  0.000000000  0.000000000
     0.000000000  0.043467452  0.000000000     0.000000000  0.333333333  0.000000000
     0.000000000  0.000000000  0.033987595     0.000000000  0.000000000  1.000000000

  Length of vectors
     0.043467452  0.043467452  0.033987595

  Shift w.r.t. Gamma in fractional coordinates (k-lattice)
     0.000000000  0.000000000  0.000000000

 
 Subroutine IBZKPT returns following result:
 ===========================================
 
 Found      3 irreducible k-points:
 
 Following reciprocal coordinates:
            Coordinates               Weight
  0.000000  0.000000  0.000000      1.000000
  0.333333  0.000000  0.000000      4.000000
  0.333333  0.333333  0.000000      4.000000
 
 Following cartesian coordinates:
            Coordinates               Weight
  0.000000  0.000000  0.000000      1.000000
  0.043467  0.000000  0.000000      4.000000
  0.043467  0.043467  0.000000      4.000000
 


--------------------------------------------------------------------------------------------------------




 Dimension of arrays:
   k-points           NKPTS =      3   k-points in BZ     NKDIM =      3   number of bands    NBANDS=    237
   number of dos      NEDOS =    301   number of ions     NIONS =     36
   non local maximal  LDIM  =      6   non local SUM 2l+1 LMDIM =     18
   total plane-waves  NPLWV = 256000
   max r-space proj   IRMAX =   1833   max aug-charges    IRDMAX=   4485
   dimension x,y,z NGX =    40 NGY =   40 NGZ =  160
   dimension x,y,z NGXF=    80 NGYF=   80 NGZF=  320
   support grid    NGXF=    80 NGYF=   80 NGZF=  320
   ions per type =              36
   NGX,Y,Z   is equivalent  to a cutoff of   8.67,  8.67,  9.04 a.u.
   NGXF,Y,Z  is equivalent  to a cutoff of  17.34, 17.34, 18.08 a.u.

 SYSTEM =  Cu(100) coverage-dependent binding (RPBE
 POSCAR =  Cu                                      

 Startparameter for this run:
   NWRITE =      2    write-flag & timer
   PREC   = normal    normal or accurate (medium, high low for compatibility)
   ISTART =      0    job   : 0-new  1-cont  2-samecut
   ICHARG =      2    charge: 1-file 2-atom 10-const
   ISPIN  =      1    spin polarized calculation?
   LNONCOLLINEAR =      F non collinear calculations
   LSORBIT =      F    spin-orbit coupling
   INIWAV =      1    electr: 0-lowe 1-rand  2-diag
   LASPH  =      F    aspherical Exc in radial PAW
 Electronic Relaxation 1
   ENCUT  =  450.0 eV  33.07 Ry    5.75 a.u.  13.26 13.26 50.89*2*pi/ulx,y,z
   ENINI  =  450.0     initial cutoff
   ENAUG  =  587.0 eV  augmentation charge cutoff
   NELM   =    200;   NELMIN=  2; NELMDL= -5     # of ELM steps 
   EDIFF  = 0.1E-05   stopping-criterion for ELM
   LREAL  =      T    real-space projection
   NLSPLINE    = F    spline interpolate recip. space projectors
   LCOMPAT=      F    compatible to vasp.4.4
   GGA_COMPAT  = T    GGA compatible to vasp.4.4-vasp.4.6
   LMAXPAW     = -100 max onsite density
   LMAXMIX     =    2 max onsite mixed and CHGCAR
   VOSKOWN=      0    Vosko Wilk Nusair interpolation
   ROPT   =   -0.00050
 Ionic relaxation
   EDIFFG = -.3E-01   stopping-criterion for IOM
   NSW    =    300    number of steps for IOM
   NBLOCK =      1;   KBLOCK =    300    inner block; outer block 
   IBRION =      2    ionic relax: 0-MD 1-quasi-New 2-CG
   NFREE  =      1    steps in history (QN), initial steepest desc. (CG)
   ISIF   =      2    stress and relaxation
   IWAVPR =     11    prediction:  0-non 1-charg 2-wave 3-comb
   ISYM   =      2    0-nonsym 1-usesym 2-fastsym
   LCORR  =      T    Harris-Foulkes like correction to forces

   POTIM  = 0.5000    time-step for ionic-motion
   TEIN   =    0.0    initial temperature
   TEBEG  =    0.0;   TEEND  =   0.0 temperature during run
   SMASS  =  -3.00    Nose mass-parameter (am)
   estimated Nose-frequenzy (Omega)   =  0.10E-29 period in steps = 0.13E+47 mass=  -0.134E-26a.u.
   SCALEE = 1.0000    scale energy and forces
   NPACO  =    256;   APACO  = 10.0  distance and # of slots for P.C.
   PSTRESS=    0.0 pullay stress

  Mass of Ions in am
   POMASS =  63.55
  Ionic Valenz
   ZVAL   =  11.00
  Atomic Wigner-Seitz radii
   RWIGS  =  -1.00
  virtual crystal weights 
   VCA    =   1.00
   NELECT =     396.0000    total number of electrons
   NUPDOWN=      -1.0000    fix difference up-down

 DOS related values:
   EMIN   =  10.00;   EMAX   =-10.00  energy-range for DOS
   EFERMI =   0.00;   METHOD = LEGACY      
   ISMEAR =     0;   SIGMA  =   0.10  broadening in eV -4-tet -1-fermi 0-gaus
   EFERMI_NEDOS =   21; number of points for ismear=-14 and -15

 Electronic relaxation 2 (details)
   IALGO  =     38    algorithm
   LDIAG  =      T    sub-space diagonalisation (order eigenvalues)
   LSUBROT=      F    optimize rotation matrix (better conditioning)
   LROBUST=      F    robust break criterion during scf (extrapolated energy error)
   ISEARCH=      0    line search for conjugate gradient (0, 1=use gradient)
   TURBO    =      0    0=normal 1=particle mesh
   IRESTART =      0    0=no restart 2=restart with 2 vectors
   NREBOOT  =      0    no. of reboots
   NMIN     =      0    reboot dimension
   EREF     =   0.00    reference energy to select bands
   IMIX   =      4    mixing-type and parameters
     AMIX     =   0.40;   BMIX     =  1.00
     AMIX_MAG =   1.60;   BMIX_MAG =  1.00
     AMIN     =   0.10
     WC   =   100.;   INIMIX=   1;  MIXPRE=   1;  MAXMIX= -45

 Intra band minimization:
   WEIMIN = 0.0010     energy-eigenvalue tresh-hold
   EBREAK =  0.11E-08  absolut break condition
   DEPER  =   0.30     relativ break condition  

   TIME   =   0.40     timestep for ELM

  volume/ion in A,a.u.               =      48.06       324.34
  Fermi-wavevector in a.u.,A,eV,Ry     =   1.001391  1.892355 13.643702  1.002784
  Thomas-Fermi vector in A             =   2.133810
 
 Write flags
   LWAVE        =      F    write WAVECAR
   LDOWNSAMPLE  =      F    k-point downsampling of WAVECAR
   LCHARG       =      F    write CHGCAR
   LVTOT        =      F    write LOCPOT, total local potential
   LVHAR        =      F    write LOCPOT, Hartree potential only
   WRT_POTENTIAL= false  ! write potential to hdf5 file
   LELF         =      F    write electronic localiz. function (ELF)
   LORBIT       =     11    0 simple, 1 ext, 2 COOP (PROOUT), +10 PAW based schemes


 Python interface
   PLUGINS active      =      F    recompile with -DPLUGINS to activate
 
 Dipole corrections
   LMONO      =      F    monopole corrections only (constant potential shift)
   LDIPOL     =      F    correct potential (dipole corrections)
   IDIPOL     =      0    1-x, 2-y, 3-z, 4-all directions 
   EPSILON    =  1.0000000 bulk dielectric constant
   LVACPOTAV  =      F  vacuum potentials using an averaging scheme for the charge density
   VACPOTFLAT =  0.1000000 required flatness to determine vacuum potential
 
Coulomb truncation method
  LTRUNCATE          =      F  Coulomb kernel truncation to be used

 
 Exchange correlation treatment:
   GGA     = RP    functional components
   XC_C    = 1    coefficients multiplying the functional components
   LIBXC   =     F    Libxc                    
   VOSKOWN =     0    Vosko Wilk Nusair interpolation
   LHFCALC =     F    Hartree Fock is set to
   LHFONE  =     F    Hartree Fock one center treatment
   AEXX    =    0.0000 exact exchange contribution

 Parameters of functionals:
   RP:
     No parameter
 
 Van der Waals corrections
   IVDW    =     0    specifies the selected vdW correction

 Linear response parameters
   LEPSILON=     F    determine dielectric tensor
   LRPA    =     F    only Hartree local field effects (RPA)
   LNABLA  =     F    use nabla operator in PAW spheres
   LVEL    =     F    velocity operator in full k-point grid
   CSHIFT  =0.1000    complex shift for real part using Kramers Kronig
   OMEGAMAX=  -1.0    maximum frequency
   DEG_THRESHOLD= 0.2000000E-02 threshold for treating states as degnerate
   RTIME   =   -0.100 relaxation time in fs
  (WPLASMAI=    0.000 imaginary part of plasma frequency in eV, 0.658/RTIME)
   DFIELD  = 0.0000000 0.0000000 0.0000000 field for delta impulse in time
 
  Optional k-point grid parameters
   LKPOINTS_OPT  =     F    use optional k-point grid
   KPOINTS_OPT_MODE=     1    mode for optional k-point grid
 
 Orbital magnetization related:
   ORBITALMAG=     F  switch on orbital magnetization
   LCHIMAG   =     F  perturbation theory with respect to B field
   DQ        =  0.001000  dq finite difference perturbation B field
   LLRAUG    =     F  two centre corrections for induced B field
   LBONE     =     F  B-component reconstruction in AE one-centre
   LVGVCALC  =     T  calculate vGv susceptibility
   LVGVAPPL  =     F  apply vGv susceptibility instead of pGv for G=0

 Random number generation:
   RANDOM_GENERATOR = DEFAULT
   PCG_SEED         = not used


--------------------------------------------------------------------------------------------------------


 conjugate gradient relaxation of ions
   using selective dynamics as specified on POSCAR
   WARNING: If single coordinates had been selected the selection of coordinates
            is made according to the corresponding   d i r e c t   coordinates!
            Don't support selection of single cartesian coordinates -- sorry ... !
 charge density and potential will be updated during run
 non-spin polarized calculation
 Variant of blocked Davidson
 Davidson routine will perform the subspace rotation
 perform sub-space diagonalisation
    after iterative eigenvector-optimisation
 modified Broyden-mixing scheme, WC =      100.0
 initial mixing is a Kerker type mixing with AMIX =  0.4000 and BMIX =      1.0000
 Hartree-type preconditioning will be used
 using additional bands            39
 real space projection scheme for non local part
 use partial core corrections
 calculate Harris-corrections to forces 
   (improved forces if not selfconsistent)
 use gradient corrections 
 use of overlap-Matrix (Vanderbilt PP)
 Gauss-broadening in eV      SIGMA  =   0.10


--------------------------------------------------------------------------------------------------------


  energy-cutoff  :      450.00
  volume of cell :     1730.25
      direct lattice vectors                 reciprocal lattice vectors
     7.668573042  0.000000000  0.000000000     0.130402357  0.000000000  0.000000000
     0.000000000  7.668573042  0.000000000     0.000000000  0.130402357  0.000000000
     0.000000000  0.000000000 29.422500000     0.000000000  0.000000000  0.033987595

  length of vectors
     7.668573042  7.668573042 29.422500000     0.130402357  0.130402357  0.033987595


 
 k-points in units of 2pi/SCALE and weight: Automatic mesh                          
   0.00000000  0.00000000  0.00000000       0.111
   0.04346745  0.00000000  0.00000000       0.444
   0.04346745  0.04346745  0.00000000       0.444
 
 k-points in reciprocal lattice and weights: Automatic mesh                          
   0.00000000  0.00000000  0.00000000       0.111
   0.33333333  0.00000000  0.00000000       0.444
   0.33333333  0.33333333  0.00000000       0.444
 
 position of ions in fractional coordinates (direct lattice) 
   0.16666667  0.16666667  0.40785113
   0.50000000  0.16666667  0.40785113
   0.83333333  0.16666667  0.40785113
   0.16666667  0.50000000  0.40785113
   0.50000000  0.50000000  0.40785113
   0.83333333  0.50000000  0.40785113
   0.16666667  0.83333333  0.40785113
   0.50000000  0.83333333  0.40785113
   0.83333333  0.83333333  0.40785113
   0.00000000  0.00000000  0.46928371
   0.33333333  0.00000000  0.46928371
   0.66666667  0.00000000  0.46928371
   0.00000000  0.33333333  0.46928371
   0.33333333  0.33333333  0.46928371
   0.66666667  0.33333333  0.46928371
   0.00000000  0.66666667  0.46928371
   0.33333333  0.66666667  0.46928371
   0.66666667  0.66666667  0.46928371
   0.16666667  0.16666667  0.53071629
   0.50000000  0.16666667  0.53071629
   0.83333333  0.16666667  0.53071629
   0.16666667  0.50000000  0.53071629
   0.50000000  0.50000000  0.53071629
   0.83333333  0.50000000  0.53071629
   0.16666667  0.83333333  0.53071629
   0.50000000  0.83333333  0.53071629
   0.83333333  0.83333333  0.53071629
   0.00000000  0.00000000  0.59214887
   0.33333333  0.00000000  0.59214887
   0.66666667  0.00000000  0.59214887
   0.00000000  0.33333333  0.59214887
   0.33333333  0.33333333  0.59214887
   0.66666667  0.33333333  0.59214887
   0.00000000  0.66666667  0.59214887
   0.33333333  0.66666667  0.59214887
   0.66666667  0.66666667  0.59214887
 
 position of ions in cartesian coordinates  (Angst):
   1.27809551  1.27809551 12.00000000
   3.83428652  1.27809551 12.00000000
   6.39047753  1.27809551 12.00000000
   1.27809551  3.83428652 12.00000000
   3.83428652  3.83428652 12.00000000
   6.39047753  3.83428652 12.00000000
   1.27809551  6.39047753 12.00000000
   3.83428652  6.39047753 12.00000000
   6.39047753  6.39047753 12.00000000
   0.00000000  0.00000000 13.80750000
   2.55619101  0.00000000 13.80750000
   5.11238203  0.00000000 13.80750000
   0.00000000  2.55619101 13.80750000
   2.55619101  2.55619101 13.80750000
   5.11238203  2.55619101 13.80750000
   0.00000000  5.11238203 13.80750000
   2.55619101  5.11238203 13.80750000
   5.11238203  5.11238203 13.80750000
   1.27809551  1.27809551 15.61500000
   3.83428652  1.27809551 15.61500000
   6.39047753  1.27809551 15.61500000
   1.27809551  3.83428652 15.61500000
   3.83428652  3.83428652 15.61500000
   6.39047753  3.83428652 15.61500000
   1.27809551  6.39047753 15.61500000
   3.83428652  6.39047753 15.61500000
   6.39047753  6.39047753 15.61500000
   0.00000000  0.00000000 17.42250000
   2.55619101  0.00000000 17.42250000
   5.11238203  0.00000000 17.42250000
   0.00000000  2.55619101 17.42250000
   2.55619101  2.55619101 17.42250000
   5.11238203  2.55619101 17.42250000
   0.00000000  5.11238203 17.42250000
   2.55619101  5.11238203 17.42250000
   5.11238203  5.11238203 17.42250000
 


--------------------------------------------------------------------------------------------------------


 k-point     1 :   0.0000 0.0000 0.0000  plane waves:   37573
 k-point     2 :   0.3333 0.0000 0.0000  plane waves:   37492
 k-point     3 :   0.3333 0.3333 0.0000  plane waves:   37511

 maximum and minimum number of plane-waves per node :     37573    37492

 maximum number of plane-waves:     37573
 maximum index in each direction: 
   IXMAX=   13   IYMAX=   13   IZMAX=   50
   IXMIN=  -13   IYMIN=  -13   IZMIN=  -50


 serial   3D FFT for wavefunctions
 parallel 3D FFT for charge:
    minimum data exchange during FFTs selected (reduces bandwidth)


 total amount of memory used by VASP MPI-rank0   655378. kBytes
=======================================================================

   base                                    :      30000. kBytes
   nonlr-proj                              :      10950. kBytes
   fftplans                                :      70088. kBytes
   grid                                    :     108979. kBytes
   one-center                              :        559. kBytes
   wavefun                                 :     434802. kBytes
 
     INWAV:  cpu time      0.0000: real time      0.0001
 Broyden mixing: mesh for mixing (old mesh)
   NGX = 27   NGY = 27   NGZ =101
  (NGX  = 80   NGY  = 80   NGZ  =320)
  gives a total of  73629 points

 initial charge density was supplied:
 charge density of overlapping atoms calculated
 number of electron     396.0000000 magnetization 
 keeping initial charge density in first step


--------------------------------------------------------------------------------------------------------


 Maximum index for non-local projection operator          1747
 Maximum index for augmentation-charges          4164 (set IRDMAX)


--------------------------------------------------------------------------------------------------------


 First call to EWALD:  gamma=   0.148
 Maximum number of real-space cells   4x   4x   1
 Maximum number of reciprocal cells   2x   2x   6

    FEWALD:  cpu time      0.0355: real time      0.0355


--------------------------------------- Ionic step        1  -------------------------------------------




--------------------------------------- Iteration      1(   1)  ---------------------------------------


    POTLOK:  cpu time      0.0287: real time      0.0287
    SETDIJ:  cpu time      0.0286: real time      0.0287
     EDDAV:  cpu time      1.6550: real time      1.6615
       DOS:  cpu time      0.0006: real time      0.0006
    --------------------------------------------
      LOOP:  cpu time      1.7129: real time      1.7196

 eigenvalue-minimisations  :  1422
 total energy-change (2. order) : 0.3414893E+04  (-0.1488220E+05)
 number of electron     396.0000000 magnetization 
 augmentation part      396.0000000 magnetization 

 Free energy of the ion-electron system (eV)
  ---------------------------------------------------
  alpha Z        PSCENC =       547.78298255
  Ewald energy   TEWEN  =    303873.87108047
  -Hartree energ DENC   =   -351057.14734428
  -exchange      EXHF   =         0.00000000
  -V(xc)+E(xc)   XCENC  =      1616.51172603
  PAW double counting   =     44243.50493509   -48017.47383163
  entropy T*S    EENTRO =        -0.08187743
  eigenvalues    EBANDS =      2170.22023907
  atomic energy  EATOM  =     50037.70483787
  Solvation  Ediel_sol  =         0.00000000
  ---------------------------------------------------
  free energy    TOTEN  =      3414.89274774 eV

  energy without entropy =     3414.97462517  energy(sigma->0) =     3414.93368646


--------------------------------------------------------------------------------------------------------




--------------------------------------- Iteration      1(   2)  ---------------------------------------


     EDDAV:  cpu time      1.5500: real time      1.5539
       DOS:  cpu time      0.0007: real time      0.0007
    --------------------------------------------
      LOOP:  cpu time      1.5507: real time      1.5545

 eigenvalue-minimisations  :  1422
 total energy-change (2. order) :-0.3194563E+04  (-0.3084186E+04)
 number of electron     396.0000000 magnetization 
 augmentation part      396.0000000 magnetization 

 Free energy of the ion-electron system (eV)
  ---------------------------------------------------
  alpha Z        PSCENC =       547.78298255
  Ewald energy   TEWEN  =    303873.87108047
  -Hartree energ DENC   =   -351057.14734428
  -exchange      EXHF   =         0.00000000
  -V(xc)+E(xc)   XCENC  =      1616.51172603
  PAW double counting   =     44243.50493509   -48017.47383163
  entropy T*S    EENTRO =        -0.07008138
  eigenvalues    EBANDS =     -1024.35469168
  atomic energy  EATOM  =     50037.70483787
  Solvation  Ediel_sol  =         0.00000000
  ---------------------------------------------------
  free energy    TOTEN  =       220.32961305 eV

  energy without entropy =      220.39969443  energy(sigma->0) =      220.36465374


--------------------------------------------------------------------------------------------------------




--------------------------------------- Iteration      1(   3)  ---------------------------------------


     EDDAV:  cpu time      1.6157: real time      1.6196
       DOS:  cpu time      0.0008: real time      0.0008
    --------------------------------------------
      LOOP:  cpu time      1.6165: real time      1.6204

 eigenvalue-minimisations  :  1493
 total energy-change (2. order) :-0.3327881E+03  (-0.3115593E+03)
 number of electron     396.0000000 magnetization 
 augmentation part      396.0000000 magnetization 

 Free energy of the ion-electron system (eV)
  ---------------------------------------------------
  alpha Z        PSCENC =       547.78298255
  Ewald energy   TEWEN  =    303873.87108047
  -Hartree energ DENC   =   -351057.14734428
  -exchange      EXHF   =         0.00000000
  -V(xc)+E(xc)   XCENC  =      1616.51172603
  PAW double counting   =     44243.50493509   -48017.47383163
  entropy T*S    EENTRO =        -0.09709006
  eigenvalues    EBANDS =     -1357.11578758
  atomic energy  EATOM  =     50037.70483787
  Solvation  Ediel_sol  =         0.00000000
  ---------------------------------------------------
  free energy    TOTEN  =      -112.45849154 eV

  energy without entropy =     -112.36140148  energy(sigma->0) =     -112.40994651


--------------------------------------------------------------------------------------------------------




--------------------------------------- Iteration      1(   4)  ---------------------------------------


     EDDAV:  cpu time      1.6660: real time      1.6696
       DOS:  cpu time      0.0008: real time      0.0008
    --------------------------------------------
      LOOP:  cpu time      1.6668: real time      1.6704

 eigenvalue-minimisations  :  1548
 total energy-change (2. order) :-0.1913018E+02  (-0.1849517E+02)
 number of electron     396.0000000 magnetization 
 augmentation part      396.0000000 magnetization 

 Free energy of the ion-electron system (eV)
  ---------------------------------------------------
  alpha Z        PSCENC =       547.78298255
  Ewald energy   TEWEN  =    303873.87108047
  -Hartree energ DENC   =   -351057.14734428
  -exchange      EXHF   =         0.00000000
  -V(xc)+E(xc)   XCENC  =      1616.51172603
  PAW double counting   =     44243.50493509   -48017.47383163
  entropy T*S    EENTRO =        -0.08870494
  eigenvalues    EBANDS =     -1376.25434793
  atomic energy  EATOM  =     50037.70483787
  Solvation  Ediel_sol  =         0.00000000
  ---------------------------------------------------
  free energy    TOTEN  =      -131.58866677 eV

  energy without entropy =     -131.49996183  energy(sigma->0) =     -131.54431430


--------------------------------------------------------------------------------------------------------




--------------------------------------- Iteration      1(   5)  ---------------------------------------


     EDDAV:  cpu time      1.7365: real time      1.7402
       DOS:  cpu time      0.0009: real time      0.0009
    CHARGE:  cpu time      0.1303: real time      0.1306
    MIXING:  cpu time      0.0251: real time      0.0251
    --------------------------------------------
      LOOP:  cpu time      1.8927: real time      1.8969

 eigenvalue-minimisations  :  1628
 total energy-change (2. order) :-0.6241034E+00  (-0.6193950E+00)
 number of electron     395.9999538 magnetization 
 augmentation part      237.0074857 magnetization 

 Broyden mixing:
  rms(total) = 0.39956E+01    rms(broyden)= 0.39955E+01
  rms(prec ) = 0.41339E+01
  weight for this iteration     100.00

 Free energy of the ion-electron system (eV)
  ---------------------------------------------------
  alpha Z        PSCENC =       547.78298255
  Ewald energy   TEWEN  =    303873.87108047
  -Hartree energ DENC   =   -351057.14734428
  -exchange      EXHF   =         0.00000000
  -V(xc)+E(xc)   XCENC  =      1616.51172603
  PAW double counting   =     44243.50493509   -48017.47383163
  entropy T*S    EENTRO =        -0.08882437
  eigenvalues    EBANDS =     -1376.87833185
  atomic energy  EATOM  =     50037.70483787
  Solvation  Ediel_sol  =         0.00000000
  ---------------------------------------------------
  free energy    TOTEN  =      -132.21277012 eV

  energy without entropy =     -132.12394575  energy(sigma->0) =     -132.16835794


--------------------------------------------------------------------------------------------------------




--------------------------------------- Iteration      1(   6)  ---------------------------------------


    POTLOK:  cpu time      0.0118: real time      0.0119
    SETDIJ:  cpu time      0.0288: real time      0.0288
     EDDAV:  cpu time      1.7324: real time      1.7362
       DOS:  cpu time      0.0008: real time      0.0008
    CHARGE:  cpu time      0.1244: real time      0.1246
    MIXING:  cpu time      0.0255: real time      0.0255
    --------------------------------------------
      LOOP:  cpu time      1.9236: real time      1.9279

 eigenvalue-minimisations  :  1620
 total energy-change (2. order) : 0.1342720E+02  (-0.3010116E+02)
 number of electron     395.9999523 magnetization 
 augmentation part      262.8980859 magnetization 

 Broyden mixing:
  rms(total) = 0.21020E+01    rms(broyden)= 0.21018E+01
  rms(prec ) = 0.21795E+01
  weight for this iteration     100.00

 eigenvalues of (default mixing * dielectric matrix)
  average eigenvalue GAMMA=   0.6581
  0.6581

 Free energy of the ion-electron system (eV)
  ---------------------------------------------------
  alpha Z        PSCENC =       547.78298255
  Ewald energy   TEWEN  =    303873.87108047
  -Hartree energ DENC   =   -350173.48175608
  -exchange      EXHF   =         0.00000000
  -V(xc)+E(xc)   XCENC  =      1574.14803831
  PAW double counting   =     44660.47740633   -48264.24593690
  entropy T*S    EENTRO =        -0.09167385
  eigenvalues    EBANDS =     -2374.95054851
  atomic energy  EATOM  =     50037.70483787
  Solvation  Ediel_sol  =         0.00000000
  ---------------------------------------------------
  free energy    TOTEN  =      -118.78556981 eV

  energy without entropy =     -118.69389596  energy(sigma->0) =     -118.73973289


--------------------------------------------------------------------------------------------------------




--------------------------------------- Iteration      1(   7)  ---------------------------------------


    POTLOK:  cpu time      0.0113: real time      0.0115
    SETDIJ:  cpu time      0.0286: real time      0.0287
     EDDAV:  cpu time      1.7990: real time      1.8029
       DOS:  cpu time      0.0008: real time      0.0008
    CHARGE:  cpu time      0.1255: real time      0.1258
    MIXING:  cpu time      0.0243: real time      0.0244
    --------------------------------------------
      LOOP:  cpu time      1.9897: real time      1.9941

 eigenvalue-minimisations  :  1690
 total energy-change (2. order) : 0.1081040E+02  (-0.5334926E+01)
 number of electron     395.9999508 magnetization 
 augmentation part      254.7901662 magnetization 

 Broyden mixing:
  rms(total) = 0.55108E+00    rms(broyden)= 0.55102E+00
  rms(prec ) = 0.57100E+00
  weight for this iteration     100.00

 eigenvalues of (default mixing * dielectric matrix)
  average eigenvalue GAMMA=   0.5294
  0.6427  0.4160

 Free energy of the ion-electron system (eV)
  ---------------------------------------------------
  alpha Z        PSCENC =       547.78298255
  Ewald energy   TEWEN  =    303873.87108047
  -Hartree energ DENC   =   -350590.01915064
  -exchange      EXHF   =         0.00000000
  -V(xc)+E(xc)   XCENC  =      1587.51401977
  PAW double counting   =     45450.80492143   -49205.18340417
  entropy T*S    EENTRO =        -0.06995466
  eigenvalues    EBANDS =     -1810.38050070
  atomic energy  EATOM  =     50037.70483787
  Solvation  Ediel_sol  =         0.00000000
  ---------------------------------------------------
  free energy    TOTEN  =      -107.97516807 eV

  energy without entropy =     -107.90521342  energy(sigma->0) =     -107.94019074


--------------------------------------------------------------------------------------------------------




--------------------------------------- Iteration      1(   8)  ---------------------------------------


    POTLOK:  cpu time      0.0118: real time      0.0120
    SETDIJ:  cpu time      0.0286: real time      0.0287
     EDDAV:  cpu time      1.7245: real time      1.7283
       DOS:  cpu time      0.0009: real time      0.0008
    CHARGE:  cpu time      0.1275: real time      0.1277
    MIXING:  cpu time      0.0245: real time      0.0245
    --------------------------------------------
      LOOP:  cpu time      1.9177: real time      1.9220

 eigenvalue-minimisations  :  1620
 total energy-change (2. order) :-0.1561021E+00  (-0.9304252E+00)
 number of electron     395.9999525 magnetization 
 augmentation part      253.4661134 magnetization 

 Broyden mixing:
  rms(total) = 0.25133E+00    rms(broyden)= 0.25130E+00
  rms(prec ) = 0.26885E+00
  weight for this iteration     100.00

 eigenvalues of (default mixing * dielectric matrix)
  average eigenvalue GAMMA=   0.9441
  1.8574  0.6335  0.3413

 Free energy of the ion-electron system (eV)
  ---------------------------------------------------
  alpha Z        PSCENC =       547.78298255
  Ewald energy   TEWEN  =    303873.87108047
  -Hartree energ DENC   =   -350611.70225144
  -exchange      EXHF   =         0.00000000
  -V(xc)+E(xc)   XCENC  =      1587.91169191
  PAW double counting   =     45726.03721679   -49506.85206634
  entropy T*S    EENTRO =        -0.06984470
  eigenvalues    EBANDS =     -1762.81491724
  atomic energy  EATOM  =     50037.70483787
  Solvation  Ediel_sol  =         0.00000000
  ---------------------------------------------------
  free energy    TOTEN  =      -108.13127013 eV

  energy without entropy =     -108.06142543  energy(sigma->0) =     -108.09634778


--------------------------------------------------------------------------------------------------------




--------------------------------------- Iteration      1(   9)  ---------------------------------------


    POTLOK:  cpu time      0.0118: real time      0.0120
    SETDIJ:  cpu time      0.0287: real time      0.0287
     EDDAV:  cpu time      1.7379: real time      1.7415
       DOS:  cpu time      0.0009: real time      0.0009
    CHARGE:  cpu time      0.1245: real time      0.1247
    MIXING:  cpu time      0.0251: real time      0.0251
    --------------------------------------------
      LOOP:  cpu time      1.9288: real time      1.9329

 eigenvalue-minimisations  :  1639
 total energy-change (2. order) :-0.1401587E+00  (-0.3059480E+00)
 number of electron     395.9999527 magnetization 
 augmentation part      251.7953660 magnetization 

 Broyden mixing:
  rms(total) = 0.39795E+00    rms(broyden)= 0.39794E+00
  rms(prec ) = 0.41243E+00
  weight for this iteration     100.00

 eigenvalues of (default mixing * dielectric matrix)
  average eigenvalue GAMMA=   1.1335
  2.3658  1.0643  0.7473  0.3566

 Free energy of the ion-electron system (eV)
  ---------------------------------------------------
  alpha Z        PSCENC =       547.78298255
  Ewald energy   TEWEN  =    303873.87108047
  -Hartree energ DENC   =   -350661.92541996
  -exchange      EXHF   =         0.00000000
  -V(xc)+E(xc)   XCENC  =      1586.80070106
  PAW double counting   =     46490.71296570   -50333.37049914
  entropy T*S    EENTRO =        -0.08215428
  eigenvalues    EBANDS =     -1649.76592312
  atomic energy  EATOM  =     50037.70483787
  Solvation  Ediel_sol  =         0.00000000
  ---------------------------------------------------
  free energy    TOTEN  =      -108.27142885 eV

  energy without entropy =     -108.18927457  energy(sigma->0) =     -108.23035171


--------------------------------------------------------------------------------------------------------




--------------------------------------- Iteration      1(  10)  ---------------------------------------


    POTLOK:  cpu time      0.0113: real time      0.0114
    SETDIJ:  cpu time      0.0287: real time      0.0288
     EDDAV:  cpu time      1.6532: real time      1.6566
       DOS:  cpu time      0.0009: real time      0.0009
    CHARGE:  cpu time      0.1261: real time      0.1263
    MIXING:  cpu time      0.0255: real time      0.0255
    --------------------------------------------
      LOOP:  cpu time      1.8456: real time      1.8495

 eigenvalue-minimisations  :  1546
 total energy-change (2. order) : 0.1993974E+00  (-0.2490929E+00)
 number of electron     395.9999523 magnetization 
 augmentation part      254.2758732 magnetization 

 Broyden mixing:
  rms(total) = 0.20466E+00    rms(broyden)= 0.20464E+00
  rms(prec ) = 0.21352E+00
  weight for this iteration     100.00

 eigenvalues of (default mixing * dielectric matrix)
  average eigenvalue GAMMA=   1.1954
  2.7274  1.4798  0.7082  0.7082  0.3536

 Free energy of the ion-electron system (eV)
  ---------------------------------------------------
  alpha Z        PSCENC =       547.78298255
  Ewald energy   TEWEN  =    303873.87108047
  -Hartree energ DENC   =   -350560.47304994
  -exchange      EXHF   =         0.00000000
  -V(xc)+E(xc)   XCENC  =      1582.25792497
  PAW double counting   =     46662.19084673   -50496.35145336
  entropy T*S    EENTRO =        -0.06919288
  eigenvalues    EBANDS =     -1754.98600786
  atomic energy  EATOM  =     50037.70483787
  Solvation  Ediel_sol  =         0.00000000
  ---------------------------------------------------
  free energy    TOTEN  =      -108.07203146 eV

  energy without entropy =     -108.00283857  energy(sigma->0) =     -108.03743501


--------------------------------------------------------------------------------------------------------




--------------------------------------- Iteration      1(  11)  ---------------------------------------


    POTLOK:  cpu time      0.0118: real time      0.0119
    SETDIJ:  cpu time      0.0286: real time      0.0287
     EDDAV:  cpu time      1.7314: real time      1.7349
       DOS:  cpu time      0.0009: real time      0.0009
    CHARGE:  cpu time      0.1279: real time      0.1281
    MIXING:  cpu time      0.0258: real time      0.0259
    --------------------------------------------
      LOOP:  cpu time      1.9263: real time      1.9303

 eigenvalue-minimisations  :  1636
 total energy-change (2. order) : 0.6402645E-01  (-0.1435010E-01)
 number of electron     395.9999522 magnetization 
 augmentation part      253.9338773 magnetization 

 Broyden mixing:
  rms(total) = 0.12789E+00    rms(broyden)= 0.12789E+00
  rms(prec ) = 0.13348E+00
  weight for this iteration     100.00

 eigenvalues of (default mixing * dielectric matrix)
  average eigenvalue GAMMA=   1.1387
  2.6468  1.6009  0.3533  0.7620  0.7620  0.7069

 Free energy of the ion-electron system (eV)
  ---------------------------------------------------
  alpha Z        PSCENC =       547.78298255
  Ewald energy   TEWEN  =    303873.87108047
  -Hartree energ DENC   =   -350590.31514157
  -exchange      EXHF   =         0.00000000
  -V(xc)+E(xc)   XCENC  =      1582.65336417
  PAW double counting   =     46763.03403469   -50607.19409300
  entropy T*S    EENTRO =        -0.07330009
  eigenvalues    EBANDS =     -1715.47177009
  atomic energy  EATOM  =     50037.70483787
  Solvation  Ediel_sol  =         0.00000000
  ---------------------------------------------------
  free energy    TOTEN  =      -108.00800500 eV

  energy without entropy =     -107.93470491  energy(sigma->0) =     -107.97135496


--------------------------------------------------------------------------------------------------------




--------------------------------------- Iteration      1(  12)  ---------------------------------------


    POTLOK:  cpu time      0.0111: real time      0.0113
    SETDIJ:  cpu time      0.0285: real time      0.0286
     EDDAV:  cpu time      1.7178: real time      1.7213
       DOS:  cpu time      0.0009: real time      0.0009
    CHARGE:  cpu time      0.1286: real time      0.1289
    MIXING:  cpu time      0.0266: real time      0.0267
    --------------------------------------------
      LOOP:  cpu time      1.9135: real time      1.9176

 eigenvalue-minimisations  :  1612
 total energy-change (2. order) : 0.2740666E-01  (-0.8540490E-02)
 number of electron     395.9999523 magnetization 
 augmentation part      253.5554768 magnetization 

 Broyden mixing:
  rms(total) = 0.45147E-01    rms(broyden)= 0.45144E-01
  rms(prec ) = 0.48321E-01
  weight for this iteration     100.00

 eigenvalues of (default mixing * dielectric matrix)
  average eigenvalue GAMMA=   1.1025
  2.4640  1.9799  0.9316  0.8416  0.8416  0.3539  0.3052

 Free energy of the ion-electron system (eV)
  ---------------------------------------------------
  alpha Z        PSCENC =       547.78298255
  Ewald energy   TEWEN  =    303873.87108047
  -Hartree energ DENC   =   -350616.74574666
  -exchange      EXHF   =         0.00000000
  -V(xc)+E(xc)   XCENC  =      1583.32572217
  PAW double counting   =     46748.61901698   -50594.18939436
  entropy T*S    EENTRO =        -0.07561750
  eigenvalues    EBANDS =     -1688.27347986
  atomic energy  EATOM  =     50037.70483787
  Solvation  Ediel_sol  =         0.00000000
  ---------------------------------------------------
  free energy    TOTEN  =      -107.98059834 eV

  energy without entropy =     -107.90498084  energy(sigma->0) =     -107.94278959


--------------------------------------------------------------------------------------------------------




--------------------------------------- Iteration      1(  13)  ---------------------------------------


    POTLOK:  cpu time      0.0116: real time      0.0117
    SETDIJ:  cpu time      0.0286: real time      0.0287
     EDDAV:  cpu time      1.7471: real time      1.7507
       DOS:  cpu time      0.0009: real time      0.0009
    CHARGE:  cpu time      0.1278: real time      0.1281
    MIXING:  cpu time      0.0267: real time      0.0268
    --------------------------------------------
      LOOP:  cpu time      1.9427: real time      1.9468

 eigenvalue-minimisations  :  1658
 total energy-change (2. order) : 0.4322706E-02  (-0.3177085E-02)
 number of electron     395.9999524 magnetization 
 augmentation part      253.3636286 magnetization 

 Broyden mixing:
  rms(total) = 0.12498E-01    rms(broyden)= 0.12492E-01
  rms(prec ) = 0.14869E-01
  weight for this iteration     100.00

 eigenvalues of (default mixing * dielectric matrix)
  average eigenvalue GAMMA=   1.2031
  2.5631  2.5631  1.4401  0.8188  0.8188  0.7902  0.3533  0.2772

 Free energy of the ion-electron system (eV)
  ---------------------------------------------------
  alpha Z        PSCENC =       547.78298255
  Ewald energy   TEWEN  =    303873.87108047
  -Hartree energ DENC   =   -350633.43917253
  -exchange      EXHF   =         0.00000000
  -V(xc)+E(xc)   XCENC  =      1583.67157536
  PAW double counting   =     46739.34973953   -50585.35199819
  entropy T*S    EENTRO =        -0.07678271
  eigenvalues    EBANDS =     -1671.48853799
  atomic energy  EATOM  =     50037.70483787
  Solvation  Ediel_sol  =         0.00000000
  ---------------------------------------------------
  free energy    TOTEN  =      -107.97627564 eV

  energy without entropy =     -107.89949292  energy(sigma->0) =     -107.93788428


--------------------------------------------------------------------------------------------------------




--------------------------------------- Iteration      1(  14)  ---------------------------------------


    POTLOK:  cpu time      0.0115: real time      0.0116
    SETDIJ:  cpu time      0.0286: real time      0.0287
     EDDAV:  cpu time      1.7198: real time      1.7233
       DOS:  cpu time      0.0009: real time      0.0008
    CHARGE:  cpu time      0.1279: real time      0.1281
    MIXING:  cpu time      0.0273: real time      0.0273
    --------------------------------------------
      LOOP:  cpu time      1.9159: real time      1.9199

 eigenvalue-minimisations  :  1632
 total energy-change (2. order) : 0.2483375E-02  (-0.5124972E-03)
 number of electron     395.9999524 magnetization 
 augmentation part      253.3345916 magnetization 

 Broyden mixing:
  rms(total) = 0.10549E-01    rms(broyden)= 0.10548E-01
  rms(prec ) = 0.11397E-01
  weight for this iteration     100.00

 eigenvalues of (default mixing * dielectric matrix)
  average eigenvalue GAMMA=   1.2340
  3.3823  2.4797  1.6324  0.8469  0.8469  0.8330  0.3533  0.4543  0.2767

 Free energy of the ion-electron system (eV)
  ---------------------------------------------------
  alpha Z        PSCENC =       547.78298255
  Ewald energy   TEWEN  =    303873.87108047
  -Hartree energ DENC   =   -350651.38074425
  -exchange      EXHF   =         0.00000000
  -V(xc)+E(xc)   XCENC  =      1583.71424008
  PAW double counting   =     46735.88731100   -50581.52380697
  entropy T*S    EENTRO =        -0.07751576
  eigenvalues    EBANDS =     -1653.95217725
  atomic energy  EATOM  =     50037.70483787
  Solvation  Ediel_sol  =         0.00000000
  ---------------------------------------------------
  free energy    TOTEN  =      -107.97379226 eV

  energy without entropy =     -107.89627650  energy(sigma->0) =     -107.93503438


--------------------------------------------------------------------------------------------------------




--------------------------------------- Iteration      1(  15)  ---------------------------------------


    POTLOK:  cpu time      0.0114: real time      0.0115
    SETDIJ:  cpu time      0.0286: real time      0.0286
     EDDAV:  cpu time      1.7397: real time      1.7433
       DOS:  cpu time      0.0009: real time      0.0009
    CHARGE:  cpu time      0.1283: real time      0.1286
    MIXING:  cpu time      0.0280: real time      0.0281
    --------------------------------------------
      LOOP:  cpu time      1.9369: real time      1.9409

 eigenvalue-minimisations  :  1662
 total energy-change (2. order) : 0.1399772E-03  (-0.1071074E-03)
 number of electron     395.9999524 magnetization 
 augmentation part      253.3322658 magnetization 

 Broyden mixing:
  rms(total) = 0.93889E-02    rms(broyden)= 0.93885E-02
  rms(prec ) = 0.10041E-01
  weight for this iteration     100.00

 eigenvalues of (default mixing * dielectric matrix)
  average eigenvalue GAMMA=   1.2389
  2.8584  2.8584  1.9130  1.3381  0.8129  0.8129  0.7863  0.3535  0.2819  0.3734

 Free energy of the ion-electron system (eV)
  ---------------------------------------------------
  alpha Z        PSCENC =       547.78298255
  Ewald energy   TEWEN  =    303873.87108047
  -Hartree energ DENC   =   -350659.03284757
  -exchange      EXHF   =         0.00000000
  -V(xc)+E(xc)   XCENC  =      1583.72681899
  PAW double counting   =     46730.55067630   -50575.88392315
  entropy T*S    EENTRO =        -0.07774394
  eigenvalues    EBANDS =     -1646.61553379
  atomic energy  EATOM  =     50037.70483787
  Solvation  Ediel_sol  =         0.00000000
  ---------------------------------------------------
  free energy    TOTEN  =      -107.97365228 eV

  energy without entropy =     -107.89590834  energy(sigma->0) =     -107.93478031


--------------------------------------------------------------------------------------------------------




--------------------------------------- Iteration      1(  16)  ---------------------------------------


    POTLOK:  cpu time      0.0112: real time      0.0114
    SETDIJ:  cpu time      0.0284: real time      0.0285
     EDDAV:  cpu time      1.8138: real time      1.8174
       DOS:  cpu time      0.0009: real time      0.0009
    CHARGE:  cpu time      0.1307: real time      0.1310
    MIXING:  cpu time      0.0295: real time      0.0295
    --------------------------------------------
      LOOP:  cpu time      2.0145: real time      2.0186

 eigenvalue-minimisations  :  1744
 total energy-change (2. order) :-0.4385466E-03  (-0.2449349E-04)
 number of electron     395.9999524 magnetization 
 augmentation part      253.3366705 magnetization 

 Broyden mixing:
  rms(total) = 0.79537E-02    rms(broyden)= 0.79537E-02
  rms(prec ) = 0.85590E-02
  weight for this iteration     100.00

 eigenvalues of (default mixing * dielectric matrix)
  average eigenvalue GAMMA=   1.3672
  4.1526  2.8043  2.1197  1.5161  0.8276  0.8276  0.8893  0.8893  0.3533  0.2792
  0.3796

 Free energy of the ion-electron system (eV)
  ---------------------------------------------------
  alpha Z        PSCENC =       547.78298255
  Ewald energy   TEWEN  =    303873.87108047
  -Hartree energ DENC   =   -350661.06459769
  -exchange      EXHF   =         0.00000000
  -V(xc)+E(xc)   XCENC  =      1583.72681014
  PAW double counting   =     46724.18305461   -50569.30919505
  entropy T*S    EENTRO =        -0.07772788
  eigenvalues    EBANDS =     -1644.79133584
  atomic energy  EATOM  =     50037.70483787
  Solvation  Ediel_sol  =         0.00000000
  ---------------------------------------------------
  free energy    TOTEN  =      -107.97409083 eV

  energy without entropy =     -107.89636295  energy(sigma->0) =     -107.93522689


--------------------------------------------------------------------------------------------------------




--------------------------------------- Iteration      1(  17)  ---------------------------------------


    POTLOK:  cpu time      0.0113: real time      0.0114
    SETDIJ:  cpu time      0.0288: real time      0.0289
     EDDAV:  cpu time      1.6671: real time      1.6705
       DOS:  cpu time      0.0009: real time      0.0008
    CHARGE:  cpu time      0.1316: real time      0.1319
    MIXING:  cpu time      0.0291: real time      0.0292
    --------------------------------------------
      LOOP:  cpu time      1.8688: real time      1.8727

 eigenvalue-minimisations  :  1568
 total energy-change (2. order) :-0.7135368E-03  (-0.2666184E-04)
 number of electron     395.9999524 magnetization 
 augmentation part      253.3507296 magnetization 

 Broyden mixing:
  rms(total) = 0.41609E-02    rms(broyden)= 0.41608E-02
  rms(prec ) = 0.46375E-02
  weight for this iteration     100.00

 eigenvalues of (default mixing * dielectric matrix)
  average eigenvalue GAMMA=   1.4058
  4.9415  2.8076  2.1385  1.6524  1.2271  0.8252  0.8252  0.8228  0.6190  0.3533
  0.2785  0.3787

 Free energy of the ion-electron system (eV)
  ---------------------------------------------------
  alpha Z        PSCENC =       547.78298255
  Ewald energy   TEWEN  =    303873.87108047
  -Hartree energ DENC   =   -350663.34099139
  -exchange      EXHF   =         0.00000000
  -V(xc)+E(xc)   XCENC  =      1583.69932169
  PAW double counting   =     46720.80772923   -50565.83635531
  entropy T*S    EENTRO =        -0.07766899
  eigenvalues    EBANDS =     -1642.58574048
  atomic energy  EATOM  =     50037.70483787
  Solvation  Ediel_sol  =         0.00000000
  ---------------------------------------------------
  free energy    TOTEN  =      -107.97480437 eV

  energy without entropy =     -107.89713537  energy(sigma->0) =     -107.93596987


--------------------------------------------------------------------------------------------------------




--------------------------------------- Iteration      1(  18)  ---------------------------------------


    POTLOK:  cpu time      0.0114: real time      0.0116
    SETDIJ:  cpu time      0.0286: real time      0.0287
     EDDAV:  cpu time      1.6509: real time      1.6542
       DOS:  cpu time      0.0008: real time      0.0008
    CHARGE:  cpu time      0.1301: real time      0.1304
    MIXING:  cpu time      0.0305: real time      0.0306
    --------------------------------------------
      LOOP:  cpu time      1.8523: real time      1.8562

 eigenvalue-minimisations  :  1549
 total energy-change (2. order) :-0.8302136E-03  (-0.5520341E-04)
 number of electron     395.9999524 magnetization 
 augmentation part      253.3751031 magnetization 

 Broyden mixing:
  rms(total) = 0.23895E-02    rms(broyden)= 0.23892E-02
  rms(prec ) = 0.25754E-02
  weight for this iteration     100.00

 eigenvalues of (default mixing * dielectric matrix)
  average eigenvalue GAMMA=   1.4217
  4.1460  2.9099  2.9099  1.8786  1.6501  0.8285  0.8285  0.9035  0.7922  0.6272
  0.3533  0.2784  0.3757

 Free energy of the ion-electron system (eV)
  ---------------------------------------------------
  alpha Z        PSCENC =       547.78298255
  Ewald energy   TEWEN  =    303873.87108047
  -Hartree energ DENC   =   -350665.65195770
  -exchange      EXHF   =         0.00000000
  -V(xc)+E(xc)   XCENC  =      1583.66616599
  PAW double counting   =     46719.35036360   -50564.30419273
  entropy T*S    EENTRO =        -0.07758680
  eigenvalues    EBANDS =     -1640.31732783
  atomic energy  EATOM  =     50037.70483787
  Solvation  Ediel_sol  =         0.00000000
  ---------------------------------------------------
  free energy    TOTEN  =      -107.97563458 eV

  energy without entropy =     -107.89804778  energy(sigma->0) =     -107.93684118


--------------------------------------------------------------------------------------------------------




--------------------------------------- Iteration      1(  19)  ---------------------------------------


    POTLOK:  cpu time      0.0114: real time      0.0123
    SETDIJ:  cpu time      0.0287: real time      0.0287
     EDDAV:  cpu time      1.6817: real time      1.6852
       DOS:  cpu time      0.0009: real time      0.0009
    CHARGE:  cpu time      0.1288: real time      0.1290
    MIXING:  cpu time      0.0309: real time      0.0310
    --------------------------------------------
      LOOP:  cpu time      1.8823: real time      1.8870

 eigenvalue-minimisations  :  1584
 total energy-change (2. order) :-0.4274272E-03  (-0.1049411E-04)
 number of electron     395.9999524 magnetization 
 augmentation part      253.3672195 magnetization 

 Broyden mixing:
  rms(total) = 0.76725E-03    rms(broyden)= 0.76714E-03
  rms(prec ) = 0.94873E-03
  weight for this iteration     100.00

 eigenvalues of (default mixing * dielectric matrix)
  average eigenvalue GAMMA=   1.5319
  4.5075  4.5075  2.6961  1.9674  1.6842  1.2067  0.8223  0.8223  0.8048  0.8048
  0.6165  0.3533  0.2784  0.3749

 Free energy of the ion-electron system (eV)
  ---------------------------------------------------
  alpha Z        PSCENC =       547.78298255
  Ewald energy   TEWEN  =    303873.87108047
  -Hartree energ DENC   =   -350667.17686500
  -exchange      EXHF   =         0.00000000
  -V(xc)+E(xc)   XCENC  =      1583.67734017
  PAW double counting   =     46721.93116897   -50567.09921180
  entropy T*S    EENTRO =        -0.07763514
  eigenvalues    EBANDS =     -1638.58976010
  atomic energy  EATOM  =     50037.70483787
  Solvation  Ediel_sol  =         0.00000000
  ---------------------------------------------------
  free energy    TOTEN  =      -107.97606201 eV

  energy without entropy =     -107.89842687  energy(sigma->0) =     -107.93724444


--------------------------------------------------------------------------------------------------------




--------------------------------------- Iteration      1(  20)  ---------------------------------------


    POTLOK:  cpu time      0.0111: real time      0.0112
    SETDIJ:  cpu time      0.0286: real time      0.0286
     EDDAV:  cpu time      1.8517: real time      1.8555
       DOS:  cpu time      0.0009: real time      0.0009
    CHARGE:  cpu time      0.1281: real time      0.1283
    MIXING:  cpu time      0.0318: real time      0.0318
    --------------------------------------------
      LOOP:  cpu time      2.0520: real time      2.0564

 eigenvalue-minimisations  :  1792
 total energy-change (2. order) :-0.3262318E-03  (-0.3057106E-05)
 number of electron     395.9999524 magnetization 
 augmentation part      253.3681901 magnetization 

 Broyden mixing:
  rms(total) = 0.43690E-03    rms(broyden)= 0.43686E-03
  rms(prec ) = 0.53909E-03
  weight for this iteration     100.00

 eigenvalues of (default mixing * dielectric matrix)
  average eigenvalue GAMMA=   1.5575
  4.7734  4.7734  2.6380  2.1771  1.6984  1.3224  0.9442  0.9442  0.8254  0.8254
  0.8191  0.6153  0.3533  0.2784  0.3750

 Free energy of the ion-electron system (eV)
  ---------------------------------------------------
  alpha Z        PSCENC =       547.78298255
  Ewald energy   TEWEN  =    303873.87108047
  -Hartree energ DENC   =   -350668.27233010
  -exchange      EXHF   =         0.00000000
  -V(xc)+E(xc)   XCENC  =      1583.67607367
  PAW double counting   =     46722.19168577   -50567.34092456
  entropy T*S    EENTRO =        -0.07761288
  eigenvalues    EBANDS =     -1637.51218102
  atomic energy  EATOM  =     50037.70483787
  Solvation  Ediel_sol  =         0.00000000
  ---------------------------------------------------
  free energy    TOTEN  =      -107.97638824 eV

  energy without entropy =     -107.89877536  energy(sigma->0) =     -107.93758180


--------------------------------------------------------------------------------------------------------




--------------------------------------- Iteration      1(  21)  ---------------------------------------


    POTLOK:  cpu time      0.0114: real time      0.0115
    SETDIJ:  cpu time      0.0286: real time      0.0287
     EDDAV:  cpu time      1.4007: real time      1.4035
       DOS:  cpu time      0.0009: real time      0.0008
    CHARGE:  cpu time      0.1267: real time      0.1270
    MIXING:  cpu time      0.0346: real time      0.0346
    --------------------------------------------
      LOOP:  cpu time      1.6028: real time      1.6061

 eigenvalue-minimisations  :  1237
 total energy-change (2. order) :-0.1134222E-03  (-0.5791857E-06)
 number of electron     395.9999524 magnetization 
 augmentation part      253.3681826 magnetization 

 Broyden mixing:
  rms(total) = 0.28240E-03    rms(broyden)= 0.28240E-03
  rms(prec ) = 0.35652E-03
  weight for this iteration     100.00

 eigenvalues of (default mixing * dielectric matrix)
  average eigenvalue GAMMA=   1.6956
  6.5165  4.5387  2.8274  2.5850  1.7759  1.7759  1.2670  0.8227  0.8227  0.9210
  0.8209  0.8209  0.6283  0.2784  0.3533  0.3750

 Free energy of the ion-electron system (eV)
  ---------------------------------------------------
  alpha Z        PSCENC =       547.78298255
  Ewald energy   TEWEN  =    303873.87108047
  -Hartree energ DENC   =   -350668.90717211
  -exchange      EXHF   =         0.00000000
  -V(xc)+E(xc)   XCENC  =      1583.67835570
  PAW double counting   =     46721.76313158   -50566.87543007
  entropy T*S    EENTRO =        -0.07761553
  eigenvalues    EBANDS =     -1636.91667212
  atomic energy  EATOM  =     50037.70483787
  Solvation  Ediel_sol  =         0.00000000
  ---------------------------------------------------
  free energy    TOTEN  =      -107.97650166 eV

  energy without entropy =     -107.89888613  energy(sigma->0) =     -107.93769390


--------------------------------------------------------------------------------------------------------




--------------------------------------- Iteration      1(  22)  ---------------------------------------


    POTLOK:  cpu time      0.0114: real time      0.0116
    SETDIJ:  cpu time      0.0285: real time      0.0286
     EDDAV:  cpu time      1.1992: real time      1.2016
       DOS:  cpu time      0.0009: real time      0.0009
    CHARGE:  cpu time      0.1287: real time      0.1290
    MIXING:  cpu time      0.0346: real time      0.0347
    --------------------------------------------
      LOOP:  cpu time      1.4034: real time      1.4063

 eigenvalue-minimisations  :   992
 total energy-change (2. order) :-0.1273999E-03  (-0.5391296E-06)
 number of electron     395.9999524 magnetization 
 augmentation part      253.3663132 magnetization 

 Broyden mixing:
  rms(total) = 0.31477E-03    rms(broyden)= 0.31475E-03
  rms(prec ) = 0.33886E-03
  weight for this iteration     100.00

 eigenvalues of (default mixing * dielectric matrix)
  average eigenvalue GAMMA=   1.6959
  6.7290  4.5597  2.5856  2.4784  2.4784  1.6297  1.3769  1.1957  0.8234  0.8234
  0.8488  0.8488  0.8220  0.6246  0.2784  0.3533  0.3750

 Free energy of the ion-electron system (eV)
  ---------------------------------------------------
  alpha Z        PSCENC =       547.78298255
  Ewald energy   TEWEN  =    303873.87108047
  -Hartree energ DENC   =   -350669.67251983
  -exchange      EXHF   =         0.00000000
  -V(xc)+E(xc)   XCENC  =      1583.68200035
  PAW double counting   =     46721.63923532   -50566.75281462
  entropy T*S    EENTRO =        -0.07762883
  eigenvalues    EBANDS =     -1636.15380234
  atomic energy  EATOM  =     50037.70483787
  Solvation  Ediel_sol  =         0.00000000
  ---------------------------------------------------
  free energy    TOTEN  =      -107.97662906 eV

  energy without entropy =     -107.89900023  energy(sigma->0) =     -107.93781465


--------------------------------------------------------------------------------------------------------




--------------------------------------- Iteration      1(  23)  ---------------------------------------


    POTLOK:  cpu time      0.0115: real time      0.0116
    SETDIJ:  cpu time      0.0285: real time      0.0285
     EDDAV:  cpu time      1.1834: real time      1.1862
       DOS:  cpu time      0.0009: real time      0.0009
    CHARGE:  cpu time      0.1245: real time      0.1247
    MIXING:  cpu time      0.0340: real time      0.0341
    --------------------------------------------
      LOOP:  cpu time      1.3827: real time      1.3860

 eigenvalue-minimisations  :   968
 total energy-change (2. order) :-0.4568422E-04  (-0.2597115E-06)
 number of electron     395.9999524 magnetization 
 augmentation part      253.3682497 magnetization 

 Broyden mixing:
  rms(total) = 0.18984E-03    rms(broyden)= 0.18983E-03
  rms(prec ) = 0.20547E-03
  weight for this iteration     100.00

 eigenvalues of (default mixing * dielectric matrix)
  average eigenvalue GAMMA=   1.8857
  7.9452  5.6159  3.5280  2.6799  2.6799  1.7558  1.7558  1.2181  0.8235  0.8235
  0.9139  0.8808  0.8446  0.8446  0.6257  0.3533  0.2784  0.3750

 Free energy of the ion-electron system (eV)
  ---------------------------------------------------
  alpha Z        PSCENC =       547.78298255
  Ewald energy   TEWEN  =    303873.87108047
  -Hartree energ DENC   =   -350669.68462345
  -exchange      EXHF   =         0.00000000
  -V(xc)+E(xc)   XCENC  =      1583.67873478
  PAW double counting   =     46721.54454481   -50566.64686934
  entropy T*S    EENTRO =        -0.07762351
  eigenvalues    EBANDS =     -1636.14973892
  atomic energy  EATOM  =     50037.70483787
  Solvation  Ediel_sol  =         0.00000000
  ---------------------------------------------------
  free energy    TOTEN  =      -107.97667475 eV

  energy without entropy =     -107.89905123  energy(sigma->0) =     -107.93786299


--------------------------------------------------------------------------------------------------------




--------------------------------------- Iteration      1(  24)  ---------------------------------------


    POTLOK:  cpu time      0.0111: real time      0.0113
    SETDIJ:  cpu time      0.0286: real time      0.0287
     EDDAV:  cpu time      1.1676: real time      1.1700
       DOS:  cpu time      0.0009: real time      0.0009
    CHARGE:  cpu time      0.1253: real time      0.1255
    MIXING:  cpu time      0.0348: real time      0.0348
    --------------------------------------------
      LOOP:  cpu time      1.3682: real time      1.3711

 eigenvalue-minimisations  :   958
 total energy-change (2. order) :-0.3926840E-04  (-0.1909437E-06)
 number of electron     395.9999524 magnetization 
 augmentation part      253.3672346 magnetization 

 Broyden mixing:
  rms(total) = 0.85766E-04    rms(broyden)= 0.85755E-04
  rms(prec ) = 0.91212E-04
  weight for this iteration     100.00

 eigenvalues of (default mixing * dielectric matrix)
  average eigenvalue GAMMA=   1.9207
  8.3491  5.9355  3.3124  3.3124  2.2999  2.2999  1.6900  1.3528  1.1396  0.8230
  0.8230  0.9824  0.8535  0.8535  0.8334  0.6259  0.2784  0.3533  0.3750

 Free energy of the ion-electron system (eV)
  ---------------------------------------------------
  alpha Z        PSCENC =       547.78298255
  Ewald energy   TEWEN  =    303873.87108047
  -Hartree energ DENC   =   -350669.88297858
  -exchange      EXHF   =         0.00000000
  -V(xc)+E(xc)   XCENC  =      1583.67992632
  PAW double counting   =     46721.63302419   -50566.75525810
  entropy T*S    EENTRO =        -0.07763117
  eigenvalues    EBANDS =     -1635.93269757
  atomic energy  EATOM  =     50037.70483787
  Solvation  Ediel_sol  =         0.00000000
  ---------------------------------------------------
  free energy    TOTEN  =      -107.97671402 eV

  energy without entropy =     -107.89908284  energy(sigma->0) =     -107.93789843


--------------------------------------------------------------------------------------------------------




--------------------------------------- Iteration      1(  25)  ---------------------------------------


    POTLOK:  cpu time      0.0112: real time      0.0114
    SETDIJ:  cpu time      0.0286: real time      0.0286
     EDDAV:  cpu time      1.0973: real time      1.0995
       DOS:  cpu time      0.0009: real time      0.0009
    CHARGE:  cpu time      0.1247: real time      0.1249
    MIXING:  cpu time      0.0369: real time      0.0369
    --------------------------------------------
      LOOP:  cpu time      1.2995: real time      1.3022

 eigenvalue-minimisations  :   870
 total energy-change (2. order) :-0.6832997E-05  (-0.2514456E-07)
 number of electron     395.9999524 magnetization 
 augmentation part      253.3674218 magnetization 

 Broyden mixing:
  rms(total) = 0.31635E-04    rms(broyden)= 0.31631E-04
  rms(prec ) = 0.33715E-04
  weight for this iteration     100.00

 eigenvalues of (default mixing * dielectric matrix)
  average eigenvalue GAMMA=   1.9846
  8.8172  6.1559  3.8862  3.2716  2.5310  2.5310  1.7092  1.7092  1.2933  0.8231
  0.8231  1.0379  0.9740  0.8452  0.8452  0.8060  0.6259  0.3533  0.2784  0.3750

 Free energy of the ion-electron system (eV)
  ---------------------------------------------------
  alpha Z        PSCENC =       547.78298255
  Ewald energy   TEWEN  =    303873.87108047
  -Hartree energ DENC   =   -350669.86687228
  -exchange      EXHF   =         0.00000000
  -V(xc)+E(xc)   XCENC  =      1583.68016264
  PAW double counting   =     46721.49245494   -50566.60188988
  entropy T*S    EENTRO =        -0.07762926
  eigenvalues    EBANDS =     -1635.96184789
  atomic energy  EATOM  =     50037.70483787
  Solvation  Ediel_sol  =         0.00000000
  ---------------------------------------------------
  free energy    TOTEN  =      -107.97672085 eV

[...]
 -0.000  -0.000  -0.000   0.000  -9.100   0.000   0.000   0.000
 -0.054  -0.000  -0.000  -0.000   0.000   7.044   0.000   0.000
 -0.000  -0.061   0.000   0.000   0.000   0.000   7.050   0.000
 -0.000   0.000  -0.072   0.000   0.000   0.000   0.000   7.059
 -0.000   0.000   0.000  -0.061  -0.000   0.000  -0.000   0.000
  0.000   0.000   0.000  -0.000  -0.040  -0.000  -0.000  -0.000
  0.000  -0.000  -0.006  -0.000  -0.000   0.000  -0.000   0.002
  0.000  -0.000  -0.010  -0.000  -0.000   0.000  -0.000   0.004
  0.000  -0.013  -0.000   0.000  -0.000  -0.000   0.011  -0.000
  0.000   0.000  -0.014   0.000  -0.000   0.000  -0.000   0.011
  0.000   0.000  -0.000  -0.013   0.000  -0.000   0.000  -0.000
  0.000  -0.014  -0.000  -0.000  -0.000  -0.000   0.012  -0.000
 -0.000   0.000  -0.016   0.000   0.000   0.000  -0.000   0.012
  0.000  -0.000  -0.000  -0.014   0.000  -0.000   0.000  -0.000
 total augmentation occupancy for first ion, spin component:            1
  1.923  -0.000  -0.000  -0.000  -0.000  -0.034  -0.000  -0.000   0.000  -0.000  -0.000  -0.000   0.000   0.000   0.000  -0.000
  0.000   1.923  -0.000   0.000  -0.000  -0.000  -0.026  -0.000   0.000   0.000  -0.000   0.000   0.032   0.000   0.000  -0.017
  0.000  -0.000   1.939   0.000   0.000   0.000   0.000  -0.036   0.000  -0.000   0.002   0.012   0.000   0.043  -0.000   0.000
 -0.000  -0.000   0.000   1.923   0.000  -0.000   0.000  -0.000  -0.026  -0.000   0.000  -0.000   0.000  -0.000   0.032   0.000
  0.000   0.000   0.000  -0.000   1.910   0.000  -0.000  -0.000  -0.000  -0.008   0.000   0.000   0.000   0.000  -0.000   0.000
 -0.034  -0.000  -0.000  -0.000  -0.000   0.012  -0.000   0.000   0.000   0.000   0.000  -0.000  -0.000   0.000   0.000  -0.000
  0.000  -0.026   0.000   0.000   0.000  -0.000   0.010  -0.000  -0.000  -0.000  -0.000   0.000   0.022  -0.000  -0.000  -0.001
  0.000  -0.000  -0.036   0.000  -0.000  -0.000  -0.000   0.011   0.000   0.000  -0.031   0.001   0.000   0.018   0.000  -0.000
  0.000  -0.000  -0.000  -0.026   0.000   0.000   0.000   0.000   0.010   0.000   0.000  -0.000   0.000   0.000   0.022  -0.000
  0.000   0.000  -0.000   0.000  -0.008  -0.000  -0.000   0.000  -0.000   0.012  -0.000   0.000   0.000   0.000   0.000   0.000
 -0.000  -0.000   0.002  -0.000  -0.000   0.000   0.000  -0.031  -0.000  -0.000   1.610  -0.120  -0.000   0.162  -0.000  -0.000
  0.000  -0.000   0.012  -0.000   0.000   0.000  -0.000   0.001   0.000   0.000  -0.120   0.014  -0.000  -0.024  -0.000  -0.000
 -0.000   0.032  -0.000   0.000  -0.000   0.000   0.022   0.000   0.000  -0.000   0.000  -0.000   0.180   0.000   0.000  -0.010
 -0.000   0.000   0.043  -0.000   0.000  -0.000  -0.000   0.018  -0.000   0.000   0.162  -0.024   0.000   0.111  -0.000  -0.000
 -0.000  -0.000   0.000   0.032  -0.000  -0.000   0.000   0.000   0.022   0.000   0.000   0.000   0.000   0.000   0.180   0.000
  0.000  -0.017   0.000   0.000   0.000  -0.000  -0.001   0.000   0.000   0.000  -0.000   0.000  -0.010  -0.000  -0.000   0.001
 -0.000   0.000  -0.020  -0.000  -0.000   0.000   0.000  -0.000   0.000  -0.000  -0.022   0.002  -0.000  -0.008  -0.000  -0.000
  0.000  -0.000   0.000  -0.017   0.000   0.000  -0.000   0.000  -0.001  -0.000   0.000  -0.000  -0.000   0.000  -0.010  -0.000


------------------------ aborting loop because EDIFF is reached ----------------------------------------





 total charge

# of ion       s       p       d       tot
------------------------------------------
    1        0.435   0.254   9.209   9.898
    2        0.435   0.254   9.209   9.898
    3        0.435   0.254   9.209   9.898
    4        0.435   0.254   9.209   9.898
    5        0.435   0.254   9.209   9.898
    6        0.435   0.254   9.209   9.898
    7        0.435   0.254   9.209   9.898
    8        0.435   0.254   9.209   9.898
    9        0.435   0.254   9.209   9.898
   10        0.431   0.358   9.174   9.962
   11        0.431   0.358   9.174   9.962
   12        0.431   0.358   9.174   9.962
   13        0.431   0.358   9.174   9.962
   14        0.431   0.358   9.174   9.962
   15        0.431   0.358   9.174   9.962
   16        0.431   0.358   9.174   9.962
   17        0.431   0.358   9.174   9.962
   18        0.431   0.358   9.174   9.962
   19        0.428   0.352   9.174   9.954
   20        0.428   0.352   9.174   9.954
   21        0.428   0.352   9.174   9.954
   22        0.428   0.352   9.174   9.954
   23        0.428   0.352   9.174   9.954
   24        0.428   0.352   9.174   9.954
   25        0.428   0.352   9.174   9.954
   26        0.428   0.352   9.174   9.954
   27        0.428   0.352   9.174   9.954
   28        0.432   0.249   9.208   9.889
   29        0.432   0.249   9.208   9.889
   30        0.432   0.249   9.208   9.889
   31        0.432   0.249   9.208   9.889
   32        0.432   0.249   9.208   9.889
   33        0.432   0.249   9.208   9.889
   34        0.432   0.249   9.208   9.889
   35        0.432   0.249   9.208   9.889
   36        0.432   0.249   9.208   9.889
--------------------------------------------------
tot         15.530  10.925 330.881 357.336
 
    CHARGE:  cpu time      0.1580: real time      0.1583
    FORLOC:  cpu time      0.0040: real time      0.0040
    FORNL :  cpu time      0.3974: real time      0.3981
    STRESS:  cpu time      1.1546: real time      1.1570
    FORCOR:  cpu time      0.0181: real time      0.0181
    FORHAR:  cpu time      0.0053: real time      0.0053
    MIXING:  cpu time      0.0302: real time      0.0302
    OFIELD:  cpu time      0.0000: real time      0.0000

  FORCE on cell =-STRESS in cart. coord.  units (eV):
  Direction    XX          YY          ZZ          XY          YZ          ZX
  --------------------------------------------------------------------------------------
  Alpha Z   547.78298   547.78298   547.78298
  Ewald  324701.43418324701.43418************    -0.00000    -0.00000    -0.00000
  Hartree337134.96474337134.96474************     0.00000    -0.00000    -0.00000
  E(xc)   -2313.41669 -2313.41669 -2320.54996    -0.00000    -0.00000    -0.00000
  Local  ************************674905.91877    -0.00000    -0.00000    -0.00000
  n-local  -805.84250  -788.70467  -806.96751     1.58317     0.00000    -0.00000
  augment  3399.50887  3399.50887  3411.61986     0.00000    -0.00000    -0.00000
  Kinetic  3205.91916  3214.20007  3231.05957     0.12351    -0.00000     0.00000
  Fock        0.00000     0.00000     0.00000     0.00000     0.00000     0.00000
  -------------------------------------------------------------------------------------
  Total      -2.87695    -2.87695    -0.74855     0.00000    -0.00000     0.00000
  in kB      -2.66400    -2.66400    -0.69315     0.00000    -0.00000     0.00000
  external pressure =       -2.01 kB  Pullay stress =        0.00 kB


 VOLUME and BASIS-vectors are now :
 -----------------------------------------------------------------------------
  energy-cutoff  :      450.00
  volume of cell :     1730.25
      direct lattice vectors                 reciprocal lattice vectors
     7.668573042  0.000000000  0.000000000     0.130402357  0.000000000  0.000000000
     0.000000000  7.668573042  0.000000000     0.000000000  0.130402357  0.000000000
     0.000000000  0.000000000 29.422500000     0.000000000  0.000000000  0.033987595

  length of vectors
     7.668573042  7.668573042 29.422500000     0.130402357  0.130402357  0.033987595


 FORCES acting on ions
    electron-ion (+dipol)            ewald-force                    non-local-force                 convergence-correction
 -----------------------------------------------------------------------------------------------
   0.612E-04 0.612E-04 0.371E+04   0.339E-10 0.339E-10 -.370E+04   0.193E-19 -.103E-18 -.381E+01   -.456E-06 -.456E-06 -.191E-03
   -.362E-12 0.368E-03 0.371E+04   -.609E-13 0.336E-10 -.370E+04   0.113E-19 0.557E-20 -.381E+01   0.540E-13 -.780E-06 -.191E-03
   -.612E-04 0.613E-04 0.371E+04   -.339E-10 0.338E-10 -.370E+04   0.625E-19 -.798E-20 -.381E+01   0.456E-06 -.456E-06 -.191E-03
   0.368E-03 -.417E-12 0.371E+04   0.336E-10 0.434E-13 -.370E+04   0.513E-20 -.542E-19 -.381E+01   -.780E-06 0.144E-12 -.191E-03
   -.407E-12 0.413E-12 0.371E+04   -.729E-16 -.235E-13 -.370E+04   -.326E-19 0.000E+00 -.381E+01   0.343E-13 0.177E-12 -.192E-03
   -.368E-03 -.153E-11 0.371E+04   -.337E-10 -.224E-13 -.370E+04   0.305E-19 -.136E-19 -.381E+01   0.780E-06 0.230E-12 -.191E-03
   0.613E-04 -.612E-04 0.371E+04   0.339E-10 -.339E-10 -.370E+04   -.425E-19 0.542E-19 -.381E+01   -.456E-06 0.456E-06 -.191E-03
   -.357E-12 -.368E-03 0.371E+04   0.295E-13 -.336E-10 -.370E+04   -.225E-19 -.678E-19 -.381E+01   0.122E-12 0.780E-06 -.191E-03
   -.613E-04 -.613E-04 0.371E+04   -.339E-10 -.339E-10 -.370E+04   0.614E-19 -.271E-19 -.381E+01   0.456E-06 0.456E-06 -.191E-03
   0.531E-13 -.126E-11 0.125E+04   -.446E-13 -.668E-13 -.125E+04   -.129E-19 0.203E-19 -.300E+00   -.336E-12 -.627E-13 0.396E-03
   -.856E-03 -.113E-12 0.125E+04   -.303E-10 -.891E-13 -.125E+04   -.227E-20 0.407E-19 -.300E+00   0.737E-06 -.615E-13 0.399E-03
   0.856E-03 -.216E-12 0.125E+04   0.304E-10 0.804E-13 -.125E+04   -.115E-19 0.203E-19 -.300E+00   -.737E-06 -.565E-13 0.399E-03
   0.877E-13 -.856E-03 0.125E+04   0.268E-13 -.302E-10 -.125E+04   -.754E-21 -.474E-19 -.300E+00   -.170E-12 0.737E-06 0.399E-03
   -.502E-03 -.502E-03 0.125E+04   -.306E-10 -.306E-10 -.125E+04   0.614E-20 -.136E-19 -.300E+00   -.487E-06 -.487E-06 0.400E-03
   0.502E-03 -.503E-03 0.125E+04   0.307E-10 -.306E-10 -.125E+04   0.199E-20 0.339E-19 -.300E+00   0.487E-06 -.487E-06 0.400E-03
   0.772E-13 0.856E-03 0.125E+04   0.335E-13 0.304E-10 -.125E+04   0.208E-19 0.437E-19 -.300E+00   -.174E-12 -.737E-06 0.399E-03
   -.503E-03 0.502E-03 0.125E+04   -.306E-10 0.306E-10 -.125E+04   0.299E-20 0.370E-19 -.300E+00   -.487E-06 0.487E-06 0.400E-03
   0.503E-03 0.503E-03 0.125E+04   0.307E-10 0.306E-10 -.125E+04   0.104E-19 -.105E-19 -.300E+00   0.487E-06 0.487E-06 0.400E-03
   0.330E-03 0.330E-03 -.126E+04   0.306E-10 0.306E-10 0.126E+04   0.472E-20 0.295E-19 0.417E+00   0.528E-05 0.528E-05 0.110E-02
   -.380E-12 0.699E-03 -.126E+04   0.179E-13 0.304E-10 0.126E+04   0.109E-19 -.441E-20 0.417E+00   0.550E-12 0.258E-05 0.111E-02
   -.330E-03 0.330E-03 -.126E+04   -.305E-10 0.305E-10 0.126E+04   -.828E-20 -.180E-19 0.417E+00   -.528E-05 0.528E-05 0.110E-02
   0.699E-03 -.945E-12 -.126E+04   0.303E-10 0.580E-13 0.126E+04   -.901E-20 -.136E-19 0.417E+00   0.258E-05 0.713E-13 0.111E-02
   -.348E-12 -.262E-11 -.126E+04   0.104E-16 0.714E-13 0.126E+04   -.484E-20 -.203E-19 0.417E+00   0.396E-12 0.120E-12 0.111E-02
   -.699E-03 -.658E-13 -.126E+04   -.304E-10 -.535E-13 0.126E+04   0.182E-20 0.203E-19 0.417E+00   -.258E-05 0.589E-14 0.111E-02
   0.330E-03 -.330E-03 -.126E+04   0.305E-10 -.304E-10 0.126E+04   0.606E-20 -.271E-19 0.417E+00   0.528E-05 -.528E-05 0.110E-02
   -.346E-12 -.699E-03 -.126E+04   0.179E-13 -.304E-10 0.126E+04   0.966E-20 -.678E-20 0.417E+00   0.493E-12 -.258E-05 0.111E-02
   -.330E-03 -.330E-03 -.126E+04   -.305E-10 -.306E-10 0.126E+04   0.165E-20 -.678E-20 0.417E+00   -.528E-05 -.528E-05 0.110E-02
   -.514E-12 -.603E-11 -.370E+04   -.152E-12 -.891E-13 0.370E+04   -.110E-19 -.339E-19 0.373E+01   -.113E-12 0.878E-13 0.868E-02
   -.689E-03 0.612E-13 -.370E+04   -.338E-10 -.178E-13 0.370E+04   -.931E-21 0.000E+00 0.373E+01   0.108E-04 -.388E-13 0.868E-02
   0.689E-03 0.182E-13 -.370E+04   0.337E-10 -.107E-12 0.370E+04   0.913E-20 -.678E-20 0.373E+01   -.108E-04 -.153E-13 0.868E-02
   -.537E-12 -.689E-03 -.370E+04   -.535E-13 -.337E-10 0.370E+04   -.130E-19 -.678E-20 0.373E+01   -.823E-13 0.108E-04 0.868E-02
   -.302E-03 -.302E-03 -.370E+04   -.338E-10 -.337E-10 0.370E+04   -.406E-20 -.203E-19 0.373E+01   0.760E-05 0.760E-05 0.868E-02
   0.302E-03 -.301E-03 -.370E+04   0.338E-10 -.337E-10 0.370E+04   0.190E-19 -.407E-19 0.373E+01   -.760E-05 0.760E-05 0.868E-02
   -.565E-12 0.689E-03 -.370E+04   0.278E-16 0.337E-10 0.370E+04   -.445E-20 -.112E-19 0.373E+01   -.740E-14 -.108E-04 0.868E-02
   -.301E-03 0.302E-03 -.370E+04   -.338E-10 0.337E-10 0.370E+04   0.843E-20 -.441E-20 0.373E+01   0.760E-05 -.760E-05 0.868E-02
   0.301E-03 0.301E-03 -.370E+04   0.339E-10 0.337E-10 0.370E+04   0.168E-19 0.159E-19 0.373E+01   -.760E-05 -.760E-05 0.868E-02
 -----------------------------------------------------------------------------------------------
   -.418E-11 -.227E-10 -.461E+00   -.151E-12 -.869E-14 -.546E-11   0.140E-18 -.244E-18 0.312E+00   -.288E-12 -.808E-12 0.900E-01
 
 
 POSITION                                       TOTAL-FORCE (eV/Angst)
 -----------------------------------------------------------------------------------
      1.27810      1.27810     12.00000         0.000000      0.000000     -0.107370
      3.83429      1.27810     12.00000         0.000000     -0.000000     -0.107370
      6.39048      1.27810     12.00000         0.000000     -0.000000     -0.107370
      1.27810      3.83429     12.00000         0.000000      0.000000     -0.107370
      3.83429      3.83429     12.00000        -0.000000     -0.000000     -0.107370
      6.39048      3.83429     12.00000        -0.000000     -0.000000     -0.107370
      1.27810      6.39048     12.00000         0.000000     -0.000000     -0.107370
      3.83429      6.39048     12.00000        -0.000000      0.000000     -0.107370
      6.39048      6.39048     12.00000         0.000000      0.000000     -0.107370
      0.00000      0.00000     13.80750        -0.000000      0.000000      0.110173
      2.55619      0.00000     13.80750         0.000000      0.000000      0.110173
      5.11238      0.00000     13.80750         0.000000     -0.000000      0.110173
      0.00000      2.55619     13.80750        -0.000000     -0.000000      0.110173
      2.55619      2.55619     13.80750        -0.000000     -0.000000      0.110173
      5.11238      2.55619     13.80750         0.000000      0.000000      0.110173
      0.00000      5.11238     13.80750        -0.000000     -0.000000      0.110173
      2.55619      5.11238     13.80750         0.000000      0.000000      0.110173
      5.11238      5.11238     13.80750        -0.000000     -0.000000      0.110173
      1.27810      1.27810     15.70310         0.000000      0.000000     -0.001921
      3.83429      1.27810     15.70310        -0.000000     -0.000000     -0.001921
      6.39048      1.27810     15.70310         0.000000     -0.000000     -0.001921
      1.27810      3.83429     15.70310        -0.000000      0.000000     -0.001921
      3.83429      3.83429     15.70310        -0.000000      0.000000     -0.001921
      6.39048      3.83429     15.70310         0.000000      0.000000     -0.001921
      1.27810      6.39048     15.70310        -0.000000     -0.000000     -0.001921
      3.83429      6.39048     15.70310         0.000000     -0.000000     -0.001921
      6.39048      6.39048     15.70310        -0.000000     -0.000000     -0.001921
      7.66857      7.66857     17.54017         0.000000      0.000000     -0.000882
      2.55619      0.00000     17.54017         0.000000      0.000000     -0.000882
      5.11238      0.00000     17.54017        -0.000000      0.000000     -0.000882
      7.66857      2.55619     17.54017         0.000000     -0.000000     -0.000882
      2.55619      2.55619     17.54017        -0.000000     -0.000000     -0.000882
      5.11238      2.55619     17.54017        -0.000000     -0.000000     -0.000882
      7.66857      5.11238     17.54017         0.000000      0.000000     -0.000882
      2.55619      5.11238     17.54017         0.000000      0.000000     -0.000882
      5.11238      5.11238     17.54017        -0.000000      0.000000     -0.000882
 -----------------------------------------------------------------------------------
    total drift:                               -0.000000     -0.000000     -0.058896


--------------------------------------------------------------------------------------------------------



  FREE ENERGIE OF THE ION-ELECTRON SYSTEM (eV)
  ---------------------------------------------------
  free  energy   TOTEN  =      -108.11912906 eV

  energy  without entropy=     -108.04075499  energy(sigma->0) =     -108.07994203
 d Force = 0.3175849E-02[-0.232E-03, 0.658E-02]  d Energy = 0.2699015E-02 0.477E-03
 d Force = 0.6559025E+03[ 0.656E+03, 0.656E+03]  d Ewald  = 0.6559030E+03-0.484E-03
 


--------------------------------------------------------------------------------------------------------


    POTLOK:  cpu time      0.0438: real time      0.0440


--------------------------------------------------------------------------------------------------------




--------------------------------------------------------------------------------------------------------


  
 reached required accuracy - stopping structural energy minimisation
     LOOP+:  cpu time     25.1427: real time     25.2063
    4ORBIT:  cpu time      0.0000: real time      0.0000



 total charge

# of ion       s       p       d       tot
------------------------------------------
    1        0.435   0.254   9.209   9.898
    2        0.435   0.254   9.209   9.898
    3        0.435   0.254   9.209   9.898
    4        0.435   0.254   9.209   9.898
    5        0.435   0.254   9.209   9.898
    6        0.435   0.254   9.209   9.898
    7        0.435   0.254   9.209   9.898
    8        0.435   0.254   9.209   9.898
    9        0.435   0.254   9.209   9.898
   10        0.431   0.358   9.174   9.962
   11        0.431   0.358   9.174   9.962
   12        0.431   0.358   9.174   9.962
   13        0.431   0.358   9.174   9.962
   14        0.431   0.358   9.174   9.962
   15        0.431   0.358   9.174   9.962
   16        0.431   0.358   9.174   9.962
   17        0.431   0.358   9.174   9.962
   18        0.431   0.358   9.174   9.962
   19        0.428   0.352   9.174   9.954
   20        0.428   0.352   9.174   9.954
   21        0.428   0.352   9.174   9.954
   22        0.428   0.352   9.174   9.954
   23        0.428   0.352   9.174   9.954
   24        0.428   0.352   9.174   9.954
   25        0.428   0.352   9.174   9.954
   26        0.428   0.352   9.174   9.954
   27        0.428   0.352   9.174   9.954
   28        0.432   0.249   9.208   9.889
   29        0.432   0.249   9.208   9.889
   30        0.432   0.249   9.208   9.889
   31        0.432   0.249   9.208   9.889
   32        0.432   0.249   9.208   9.889
   33        0.432   0.249   9.208   9.889
   34        0.432   0.249   9.208   9.889
   35        0.432   0.249   9.208   9.889
   36        0.432   0.249   9.208   9.889
--------------------------------------------------
tot         15.530  10.925 330.881 357.336
 

 total amount of memory used by VASP MPI-rank0   655378. kBytes
=======================================================================

   base                                    :      30000. kBytes
   nonlr-proj                              :      10950. kBytes
   fftplans                                :      70088. kBytes
   grid                                    :     108979. kBytes
   one-center                              :        559. kBytes
   wavefun                                 :     434802. kBytes
 
  
  
 General timing and accounting informations for this job:
 ========================================================
  
                  Total CPU time used (sec):      259.292
                            User time (sec):      257.637
                          System time (sec):        1.655
                         Elapsed time (sec):      259.910
  
                   Maximum memory used (kb):     2290096.
                   Average memory used (kb):          N/A
  
                          Minor page faults:       543421
                          Major page faults:           91
                 Voluntary context switches:         8759
