PROCAR lm decomposed
# of k-points:    3         # of bands:  237         # of ions:   36

 k-point     1 :    0.00000000 0.00000000 0.00000000     weight = 0.11111111

band     1 # energy   -9.91526871 # occ.  2.00000000
 
ion      s     py     pz     px    dxy    dyz    dz2    dxz  x2-y2    tot
    1  0.008  0.000  0.001  0.000  0.000  0.000  0.000  0.000  0.000  0.008
    2  0.008  0.000  0.001  0.000  0.000  0.000  0.000  0.000  0.000  0.008
    3  0.008  0.000  0.001  0.000  0.000  0.000  0.000  0.000  0.000  0.008
    4  0.008  0.000  0.001  0.000  0.000  0.000  0.000  0.000  0.000  0.008
    5  0.008  0.000  0.001  0.000  0.000  0.000  0.000  0.000  0.000  0.008
    6  0.008  0.000  0.001  0.000  0.000  0.000  0.000  0.000  0.000  0.008
    7  0.008  0.000  0.001  0.000  0.000  0.000  0.000  0.000  0.000  0.008
    8  0.008  0.000  0.001  0.000  0.000  0.000  0.000  0.000  0.000  0.008
    9  0.008  0.000  0.001  0.000  0.000  0.000  0.000  0.000  0.000  0.008
   10  0.024  0.000  0.000  0.000  0.000  0.000  0.000  0.000  0.000  0.024
   11  0.024  0.000  0.000  0.000  0.000  0.000  0.000  0.000  0.000  0.024
   12  0.024  0.000  0.000  0.000  0.000  0.000  0.000  0.000  0.000  0.024
   13  0.024  0.000  0.000  0.000  0.000  0.000  0.000  0.000  0.000  0.024
   14  0.024  0.000  0.000  0.000  0.000  0.000  0.000  0.000  0.000  0.024
   15  0.024  0.000  0.000  0.000  0.000  0.000  0.000  0.000  0.000  0.024
   16  0.024  0.000  0.000  0.000  0.000  0.000  0.000  0.000  0.000  0.024
   17  0.024  0.000  0.000  0.000  0.000  0.000  0.000  0.000  0.000  0.024
   18  0.024  0.000  0.000  0.000  0.000  0.000  0.000  0.000  0.000  0.024
   19  0.023  0.000  0.000  0.000  0.000  0.000  0.000  0.000  0.000  0.023
   20  0.023  0.000  0.000  0.000  0.000  0.000  0.000  0.000  0.000  0.023
   21  0.023  0.000  0.000  0.000  0.000  0.000  0.000  0.000  0.000  0.023
   22  0.023  0.000  0.000  0.000  0.000  0.000  0.000  0.000  0.000  0.023
   23  0.023  0.000  0.000  0.000  0.000  0.000  0.000  0.000  0.000  0.023
   24  0.023  0.000  0.000  0.000  0.000  0.000  0.000  0.000  0.000  0.023
   25  0.023  0.000  0.000  0.000  0.000  0.000  0.000  0.000  0.000  0.023
   26  0.023  0.000  0.000  0.000  0.000  0.000  0.000  0.000  0.000  0.023
   27  0.023  0.000  0.000  0.000  0.000  0.000  0.000  0.000  0.000  0.023
   28  0.007  0.000  0.001  0.000  0.000  0.000  0.000  0.000  0.000  0.007
   29  0.007  0.000  0.001  0.000  0.000  0.000  0.000  0.000  0.000  0.007
   30  0.007  0.000  0.001  0.000  0.000  0.000  0.000  0.000  0.000  0.007
   31  0.007  0.000  0.001  0.000  0.000  0.000  0.000  0.000  0.000  0.007
   32  0.007  0.000  0.001  0.000  0.000  0.000  0.000  0.000  0.000  0.007
   33  0.007  0.000  0.001  0.000  0.000  0.000  0.000  0.000  0.000  0.007
   34  0.007  0.000  0.001  0.000  0.000  0.000  0.000  0.000  0.000  0.007
   35  0.007  0.000  0.001  0.000  0.000  0.000  0.000  0.000  0.000  0.007
   36  0.007  0.000  0.001  0.000  0.000  0.000  0.000  0.000  0.000  0.007
tot    0.544  0.000  0.018  0.000  0.000  0.000  0.001  0.000  0.000  0.563
 
band     2 # energy   -8.38669477 # occ.  2.00000000
 
ion      s     py     pz     px    dxy    dyz    dz2    dxz  x2-y2    tot
    1  0.017  0.000  0.001  0.000  0.000  0.000  0.000  0.000  0.000  0.018
    2  0.017  0.000  0.001  0.000  0.000  0.000  0.000  0.000  0.000  0.018
    3  0.017  0.000  0.001  0.000  0.000  0.000  0.000  0.000  0.000  0.018
    4  0.017  0.000  0.001  0.000  0.000  0.000  0.000  0.000  0.000  0.018
    5  0.017  0.000  0.001  0.000  0.000  0.000  0.000  0.000  0.000  0.018
    6  0.017  0.000  0.001  0.000  0.000  0.000  0.000  0.000  0.000  0.018
    7  0.017  0.000  0.001  0.000  0.000  0.000  0.000  0.000  0.000  0.018
    8  0.017  0.000  0.001  0.000  0.000  0.000  0.000  0.000  0.000  0.018
    9  0.017  0.000  0.001  0.000  0.000  0.000  0.000  0.000  0.000  0.018
   10  0.009  0.000  0.003  0.000  0.000  0.000  0.001  0.000  0.000  0.012
   11  0.009  0.000  0.003  0.000  0.000  0.000  0.001  0.000  0.000  0.012
   12  0.009  0.000  0.003  0.000  0.000  0.000  0.001  0.000  0.000  0.012
   13  0.009  0.000  0.003  0.000  0.000  0.000  0.001  0.000  0.000  0.012
   14  0.009  0.000  0.003  0.000  0.000  0.000  0.001  0.000  0.000  0.012
   15  0.009  0.000  0.003  0.000  0.000  0.000  0.001  0.000  0.000  0.012
   16  0.009  0.000  0.003  0.000  0.000  0.000  0.001  0.000  0.000  0.012
   17  0.009  0.000  0.003  0.000  0.000  0.000  0.001  0.000  0.000  0.012
   18  0.009  0.000  0.003  0.000  0.000  0.000  0.001  0.000  0.000  0.012
   19  0.010  0.000  0.003  0.000  0.000  0.000  0.001  0.000  0.000  0.013
   20  0.010  0.000  0.003  0.000  0.000  0.000  0.001  0.000  0.000  0.013
   21  0.010  0.000  0.003  0.000  0.000  0.000  0.001  0.000  0.000  0.013
   22  0.010  0.000  0.003  0.000  0.000  0.000  0.001  0.000  0.000  0.013
   23  0.010  0.000  0.003  0.000  0.000  0.000  0.001  0.000  0.000  0.013
   24  0.010  0.000  0.003  0.000  0.000  0.000  0.001  0.000  0.000  0.013
   25  0.010  0.000  0.003  0.000  0.000  0.000  0.001  0.000  0.000  0.013
   26  0.010  0.000  0.003  0.000  0.000  0.000  0.001  0.000  0.000  0.013
   27  0.010  0.000  0.003  0.000  0.000  0.000  0.001  0.000  0.000  0.013
   28  0.017  0.000  0.001  0.000  0.000  0.000  0.000  0.000  0.000  0.019
   29  0.017  0.000  0.001  0.000  0.000  0.000  0.000  0.000  0.000  0.019
   30  0.017  0.000  0.001  0.000  0.000  0.000  0.000  0.000  0.000  0.019
   31  0.017  0.000  0.001  0.000  0.000  0.000  0.000  0.000  0.000  0.019
   32  0.017  0.000  0.001  0.000  0.000  0.000  0.000  0.000  0.000  0.019
   33  0.017  0.000  0.001  0.000  0.000  0.000  0.000  0.000  0.000  0.019
   34  0.017  0.000  0.001  0.000  0.000  0.000  0.000  0.000  0.000  0.019
   35  0.017  0.000  0.001  0.000  0.000  0.000  0.000  0.000  0.000  0.019
   36  0.017  0.000  0.001  0.000  0.000  0.000  0.000  0.000  0.000  0.019
tot    0.479  0.000  0.062  0.000  0.000  0.000  0.023  0.000  0.000  0.564
 
band     3 # energy   -7.52876431 # occ.  2.00000000
 
ion      s     py     pz     px    dxy    dyz    dz2    dxz  x2-y2    tot
    1  0.000  0.001  0.000  0.001  0.000  0.001  0.000  0.001  0.000  0.005
    2  0.011  0.001  0.002  0.000  0.000  0.001  0.000  0.000  0.000  0.015
    3  0.000  0.001  0.000  0.001  0.000  0.001  0.000  0.001  0.000  0.005
    4  0.011  0.000  0.002  0.001  0.000  0.000  0.000  0.001  0.000  0.015
    5  0.000  0.000  0.000  0.000  0.000  0.000  0.000  0.000  0.002  0.002
    6  0.011  0.000  0.002  0.001  0.000  0.000  0.000  0.001  0.000  0.015
    7  0.000  0.001  0.000  0.001  0.000  0.001  0.000  0.001  0.000  0.005
    8  0.011  0.001  0.002  0.000  0.000  0.001  0.000  0.000  0.000  0.015
    9  0.000  0.001  0.000  0.001  0.000  0.001  0.000  0.001  0.000  0.005
   10  0.000  0.000  0.000  0.000  0.000  0.000  0.000  0.000  0.011  0.011
   11  0.041  0.000  0.000  0.003  0.000  0.000  0.000  0.000  0.001  0.045
   12  0.041  0.000  0.000  0.003  0.000  0.000  0.000  0.000  0.001  0.045
   13  0.041  0.003  0.000  0.000  0.000  0.000  0.000  0.000  0.001  0.045
   14  0.000  0.003  0.000  0.003  0.000  0.000  0.000  0.000  0.003  0.009
   15  0.000  0.003  0.000  0.003  0.000  0.000  0.000  0.000  0.003  0.009
   16  0.041  0.003  0.000  0.000  0.000  0.000  0.000  0.000  0.001  0.045
   17  0.000  0.003  0.000  0.003  0.000  0.000  0.000  0.000  0.003  0.009
   18  0.000  0.003  0.000  0.003  0.000  0.000  0.000  0.000  0.003  0.009
   19  0.000  0.003  0.000  0.003  0.000  0.000  0.000  0.000  0.002  0.009
   20  0.038  0.003  0.000  0.000  0.000  0.000  0.000  0.000  0.001  0.043
   21  0.000  0.003  0.000  0.003  0.000  0.000  0.000  0.000  0.002  0.009
   22  0.038  0.000  0.000  0.003  0.000  0.000  0.000  0.000  0.001  0.043
   23  0.000  0.000  0.000  0.000  0.000  0.000  0.000  0.000  0.010  0.010
   24  0.038  0.000  0.000  0.003  0.000  0.000  0.000  0.000  0.001  0.043
   25  0.000  0.003  0.000  0.003  0.000  0.000  0.000  0.000  0.002  0.009
   26  0.038  0.003  0.000  0.000  0.000  0.000  0.000  0.000  0.001  0.043
   27  0.000  0.003  0.000  0.003  0.000  0.000  0.000  0.000  0.002  0.009
   28  0.000  0.000  0.000  0.000  0.000  0.000  0.000  0.000  0.001  0.001
   29  0.009  0.000  0.001  0.001  0.000  0.000  0.000  0.001  0.000  0.013
   30  0.009  0.000  0.001  0.001  0.000  0.000  0.000  0.001  0.000  0.013
   31  0.009  0.001  0.001  0.000  0.000  0.001  0.000  0.000  0.000  0.013
   32  0.000  0.001  0.000  0.001  0.000  0.001  0.000  0.001  0.000  0.004
   33  0.000  0.001  0.000  0.001  0.000  0.001  0.000  0.001  0.000  0.004
   34  0.009  0.001  0.001  0.000  0.000  0.001  0.000  0.000  0.000  0.013
   35  0.000  0.001  0.000  0.001  0.000  0.001  0.000  0.001  0.000  0.004
   36  0.000  0.001  0.000  0.001  0.000  0.001  0.000  0.001  0.000  0.004
tot    0.397  0.047  0.014  0.047  0.000  0.019  0.004  0.019  0.052  0.597
 
band     4 # energy   -7.52876327 # occ.  2.00000000
 
ion      s     py     pz     px    dxy    dyz    dz2    dxz  x2-y2    tot
    1  0.005  0.001  0.001  0.001  0.000  0.001  0.000  0.001  0.000  0.010
    2  0.001  0.001  0.000  0.000  0.000  0.001  0.000  0.000  0.001  0.005
    3  0.005  0.001  0.001  0.001  0.000  0.001  0.000  0.001  0.000  0.010
    4  0.001  0.000  0.000  0.001  0.000  0.000  0.000  0.001  0.001  0.005
    5  0.019  0.000  0.003  0.000  0.000  0.000  0.000  0.000  0.000  0.022
    6  0.001  0.000  0.000  0.001  0.000  0.000  0.000  0.001  0.001  0.005
    7  0.005  0.001  0.001  0.001  0.000  0.001  0.000  0.001  0.000  0.010
    8  0.001  0.001  0.000  0.000  0.000  0.001  0.000  0.000  0.001  0.005
    9  0.005  0.001  0.001  0.001  0.000  0.001  0.000  0.001  0.000  0.010
   10  0.073  0.000  0.000  0.000  0.000  0.000  0.000  0.000  0.000  0.074
   11  0.005  0.000  0.000  0.003  0.000  0.000  0.000  0.000  0.006  0.014
   12  0.005  0.000  0.000  0.003  0.000  0.000  0.000  0.000  0.006  0.014
   13  0.005  0.003  0.000  0.000  0.000  0.000  0.000  0.000  0.006  0.014
   14  0.018  0.003  0.000  0.003  0.000  0.000  0.000  0.000  0.000  0.025
   15  0.018  0.003  0.000  0.003  0.000  0.000  0.000  0.000  0.000  0.025
   16  0.005  0.003  0.000  0.000  0.000  0.000  0.000  0.000  0.006  0.014
   17  0.018  0.003  0.000  0.003  0.000  0.000  0.000  0.000  0.000  0.025
   18  0.018  0.003  0.000  0.003  0.000  0.000  0.000  0.000  0.000  0.025
   19  0.017  0.003  0.000  0.003  0.000  0.000  0.000  0.000  0.000  0.024
   20  0.004  0.003  0.000  0.000  0.000  0.000  0.000  0.000  0.005  0.013
   21  0.017  0.003  0.000  0.003  0.000  0.000  0.000  0.000  0.000  0.024
   22  0.004  0.000  0.000  0.003  0.000  0.000  0.000  0.000  0.005  0.013
   23  0.068  0.000  0.001  0.000  0.000  0.000  0.000  0.000  0.000  0.069
   24  0.004  0.000  0.000  0.003  0.000  0.000  0.000  0.000  0.005  0.013
   25  0.017  0.003  0.000  0.003  0.000  0.000  0.000  0.000  0.000  0.024
   26  0.004  0.003  0.000  0.000  0.000  0.000  0.000  0.000  0.005  0.013
   27  0.017  0.003  0.000  0.003  0.000  0.000  0.000  0.000  0.000  0.024
   28  0.016  0.000  0.002  0.000  0.000  0.000  0.000  0.000  0.000  0.019
   29  0.001  0.000  0.000  0.001  0.000  0.000  0.000  0.001  0.001  0.004
   30  0.001  0.000  0.000  0.001  0.000  0.000  0.000  0.001  0.001  0.004
   31  0.001  0.001  0.000  0.000  0.000  0.001  0.000  0.000  0.001  0.004
   32  0.004  0.001  0.001  0.001  0.000  0.001  0.000  0.001  0.000  0.009
   33  0.004  0.001  0.001  0.001  0.000  0.001  0.000  0.001  0.000  0.009
   34  0.001  0.001  0.000  0.000  0.000  0.001  0.000  0.000  0.001  0.004
   35  0.004  0.001  0.001  0.001  0.000  0.001  0.000  0.001  0.000  0.009
   36  0.004  0.001  0.001  0.001  0.000  0.001  0.000  0.001  0.000  0.009
tot    0.397  0.047  0.014  0.047  0.000  0.019  0.004  0.019  0.052  0.597
 
band     5 # energy   -7.52875520 # occ.  2.00000000
 
ion      s     py     pz     px    dxy    dyz    dz2    dxz  x2-y2    tot
    1  0.014  0.000  0.002  0.000  0.000  0.000  0.000  0.000  0.000  0.018
    2  0.004  0.000  0.001  0.001  0.000  0.000  0.000  0.002  0.000  0.009
    3  0.000  0.000  0.000  0.000  0.000  0.000  0.000  0.000  0.001  0.003
    4  0.003  0.001  0.001  0.000  0.000  0.002  0.000  0.000  0.000  0.008
    5  0.000  0.001  0.000  0.001  0.000  0.002  0.000  0.002  0.000  0.006
    6  0.003  0.001  0.001  0.000  0.000  0.002  0.000  0.000  0.000  0.008
    7  0.000  0.000  0.000  0.000  0.000  0.000  0.000  0.000  0.001  0.003
    8  0.004  0.000  0.001  0.001  0.000  0.000  0.000  0.002  0.000  0.009
    9  0.014  0.000  0.002  0.000  0.000  0.000  0.000  0.000  0.000  0.018
   10  0.000  0.004  0.000  0.004  0.000  0.000  0.000  0.000  0.000  0.009
   11  0.013  0.004  0.000  0.001  0.000  0.000  0.000  0.000  0.002  0.021
   12  0.013  0.004  0.000  0.001  0.000  0.000  0.000  0.000  0.002  0.021
   13  0.014  0.001  0.000  0.004  0.000  0.000  0.000  0.000  0.002  0.022
   14  0.055  0.001  0.000  0.001  0.000  0.000  0.000  0.000  0.000  0.057
   15  0.000  0.001  0.000  0.001  0.000  0.000  0.000  0.000  0.008  0.010
   16  0.014  0.001  0.000  0.004  0.000  0.000  0.000  0.000  0.002  0.022
   17  0.000  0.001  0.000  0.001  0.000  0.000  0.000  0.000  0.008  0.010
   18  0.055  0.001  0.000  0.001  0.000  0.000  0.000  0.000  0.000  0.057
   19  0.051  0.001  0.000  0.001  0.000  0.000  0.000  0.000  0.000  0.054
   20  0.013  0.001  0.000  0.004  0.000  0.000  0.000  0.000  0.002  0.021
   21  0.000  0.001  0.000  0.001  0.000  0.000  0.000  0.000  0.007  0.009
   22  0.012  0.004  0.000  0.001  0.000  0.000  0.000  0.000  0.002  0.020
   23  0.000  0.004  0.000  0.004  0.000  0.000  0.000  0.000  0.000  0.009
   24  0.012  0.004  0.000  0.001  0.000  0.000  0.000  0.000  0.002  0.020
   25  0.000  0.001  0.000  0.001  0.000  0.000  0.000  0.000  0.007  0.009
   26  0.013  0.001  0.000  0.004  0.000  0.000  0.000  0.000  0.002  0.021
   27  0.051  0.001  0.000  0.001  0.000  0.000  0.000  0.000  0.000  0.054
   28  0.000  0.001  0.000  0.001  0.000  0.002  0.000  0.002  0.000  0.005
   29  0.003  0.001  0.000  0.000  0.000  0.002  0.000  0.000  0.000  0.007
   30  0.003  0.001  0.000  0.000  0.000  0.002  0.000  0.000  0.000  0.007
   31  0.003  0.000  0.000  0.001  0.000  0.000  0.000  0.002  0.000  0.007
   32  0.012  0.000  0.002  0.000  0.000  0.000  0.000  0.000  0.000  0.016
   33  0.000  0.000  0.000  0.000  0.000  0.000  0.000  0.000  0.001  0.002
   34  0.003  0.000  0.000  0.001  0.000  0.000  0.000  0.002  0.000  0.007
   35  0.000  0.000  0.000  0.000  0.000  0.000  0.000  0.000  0.001  0.002
   36  0.012  0.000  0.002  0.000  0.000  0.000  0.000  0.000  0.000  0.016
tot    0.397  0.049  0.014  0.045  0.000  0.020  0.004  0.018  0.052  0.597
 
band     6 # energy   -7.52875520 # occ.  2.00000000
 
ion      s     py     pz     px    dxy    dyz    dz2    dxz  x2-y2    tot
    1  0.000  0.000  0.000  0.000  0.000  0.000  0.000  0.000  0.001  0.003
    2  0.003  0.000  0.001  0.001  0.000  0.000  0.000  0.002  0.000  0.008
    3  0.014  0.000  0.002  0.000  0.000  0.000  0.000  0.000  0.000  0.018
    4  0.004  0.001  0.001  0.000  0.000  0.002  0.000  0.000  0.000  0.009
    5  0.000  0.001  0.000  0.001  0.000  0.002  0.000  0.002  0.000  0.006
    6  0.004  0.001  0.001  0.000  0.000  0.002  0.000  0.000  0.000  0.009
    7  0.014  0.000  0.002  0.000  0.000  0.000  0.000  0.000  0.000  0.018
    8  0.003  0.000  0.001  0.001  0.000  0.000  0.000  0.002  0.000  0.008
    9  0.000  0.000  0.000  0.000  0.000  0.000  0.000  0.000  0.001  0.003
   10  0.000  0.004  0.000  0.004  0.000  0.000  0.000  0.000  0.000  0.009
   11  0.014  0.004  0.000  0.001  0.000  0.000  0.000  0.000  0.002  0.022
   12  0.014  0.004  0.000  0.001  0.000  0.000  0.000  0.000  0.002  0.022
   13  0.013  0.001  0.000  0.004  0.000  0.000  0.000  0.000  0.002  0.021
   14  0.000  0.001  0.000  0.001  0.000  0.000  0.000  0.000  0.008  0.010
   15  0.055  0.001  0.000  0.001  0.000  0.000  0.000  0.000  0.000  0.057
   16  0.013  0.001  0.000  0.004  0.000  0.000  0.000  0.000  0.002  0.021
   17  0.055  0.001  0.000  0.001  0.000  0.000  0.000  0.000  0.000  0.057
   18  0.000  0.001  0.000  0.001  0.000  0.000  0.000  0.000  0.008  0.010
   19  0.000  0.001  0.000  0.001  0.000  0.000  0.000  0.000  0.007  0.009
   20  0.012  0.001  0.000  0.004  0.000  0.000  0.000  0.000  0.002  0.020
   21  0.051  0.001  0.000  0.001  0.000  0.000  0.000  0.000  0.000  0.054
   22  0.013  0.004  0.000  0.001  0.000  0.000  0.000  0.000  0.002  0.021
   23  0.000  0.004  0.000  0.004  0.000  0.000  0.000  0.000  0.000  0.009
   24  0.013  0.004  0.000  0.001  0.000  0.000  0.000  0.000  0.002  0.021
   25  0.051  0.001  0.000  0.001  0.000  0.000  0.000  0.000  0.000  0.054
   26  0.012  0.001  0.000  0.004  0.000  0.000  0.000  0.000  0.002  0.020
   27  0.000  0.001  0.000  0.001  0.000  0.000  0.000  0.000  0.007  0.009
   28  0.000  0.001  0.000  0.001  0.000  0.002  0.000  0.002  0.000  0.005
   29  0.003  0.001  0.000  0.000  0.000  0.002  0.000  0.000  0.000  0.007
   30  0.003  0.001  0.000  0.000  0.000  0.002  0.000  0.000  0.000  0.007
   31  0.003  0.000  0.000  0.001  0.000  0.000  0.000  0.002  0.000  0.007
   32  0.000  0.000  0.000  0.000  0.000  0.000  0.000  0.000  0.001  0.002
   33  0.012  0.000  0.002  0.000  0.000  0.000  0.000  0.000  0.000  0.016
   34  0.003  0.000  0.000  0.001  0.000  0.000  0.000  0.002  0.000  0.007
   35  0.012  0.000  0.002  0.000  0.000  0.000  0.000  0.000  0.000  0.016
   36  0.000  0.000  0.000  0.000  0.000  0.000  0.000  0.000  0.001  0.002
tot    0.397  0.045  0.014  0.049  0.000  0.018  0.004  0.020  0.052  0.597
 
band     7 # energy   -6.50673577 # occ.  2.00000000
 
ion      s     py     pz     px    dxy    dyz    dz2    dxz  x2-y2    tot
    1  0.000  0.001  0.000  0.001  0.000  0.001  0.000  0.001  0.002  0.008
    2  0.020  0.001  0.002  0.000  0.000  0.001  0.000  0.000  0.001  0.025
    3  0.000  0.001  0.000  0.001  0.000  0.001  0.000  0.001  0.002  0.008
    4  0.020  0.000  0.002  0.001  0.000  0.000  0.000  0.001  0.001  0.025
    5  0.000  0.000  0.000  0.000  0.000  0.000  0.000  0.000  0.010  0.010
    6  0.020  0.000  0.002  0.001  0.000  0.000  0.000  0.001  0.001  0.025
    7  0.000  0.001  0.000  0.001  0.000  0.001  0.000  0.001  0.002  0.008
    8  0.020  0.001  0.002  0.000  0.000  0.001  0.000  0.000  0.001  0.025
    9  0.000  0.001  0.000  0.001  0.000  0.001  0.000  0.001  0.002  0.008
   10  0.000  0.000  0.000  0.000  0.000  0.000  0.000  0.000  0.015  0.015
   11  0.014  0.000  0.003  0.001  0.000  0.000  0.000  0.007  0.001  0.026
   12  0.014  0.000  0.003  0.001  0.000  0.000  0.000  0.007  0.001  0.026
   13  0.014  0.001  0.003  0.000  0.000  0.007  0.000  0.000  0.001  0.026
   14  0.000  0.001  0.000  0.001  0.000  0.007  0.000  0.007  0.004  0.020
   15  0.000  0.001  0.000  0.001  0.000  0.007  0.000  0.007  0.004  0.020
   16  0.014  0.001  0.003  0.000  0.000  0.007  0.000  0.000  0.001  0.026
   17  0.000  0.001  0.000  0.001  0.000  0.007  0.000  0.007  0.004  0.020
   18  0.000  0.001  0.000  0.001  0.000  0.007  0.000  0.007  0.004  0.020
   19  0.000  0.001  0.000  0.001  0.000  0.007  0.000  0.007  0.004  0.019
   20  0.016  0.001  0.003  0.000  0.000  0.007  0.000  0.000  0.001  0.028
   21  0.000  0.001  0.000  0.001  0.000  0.007  0.000  0.007  0.004  0.019
   22  0.016  0.000  0.003  0.001  0.000  0.000  0.000  0.007  0.001  0.028
   23  0.000  0.000  0.000  0.000  0.000  0.000  0.000  0.000  0.016  0.016
   24  0.016  0.000  0.003  0.001  0.000  0.000  0.000  0.007  0.001  0.028
   25  0.000  0.001  0.000  0.001  0.000  0.007  0.000  0.007  0.004  0.019
   26  0.016  0.001  0.003  0.000  0.000  0.007  0.000  0.000  0.001  0.028
   27  0.000  0.001  0.000  0.001  0.000  0.007  0.000  0.007  0.004  0.019
   28  0.000  0.000  0.000  0.000  0.000  0.000  0.000  0.000  0.009  0.009
   29  0.021  0.000  0.002  0.001  0.000  0.000  0.000  0.002  0.001  0.026
   30  0.021  0.000  0.002  0.001  0.000  0.000  0.000  0.002  0.001  0.026
   31  0.021  0.001  0.002  0.000  0.000  0.002  0.000  0.000  0.001  0.026
   32  0.000  0.001  0.000  0.001  0.000  0.002  0.000  0.002  0.002  0.008
   33  0.000  0.001  0.000  0.001  0.000  0.002  0.000  0.002  0.002  0.008
   34  0.021  0.001  0.002  0.000  0.000  0.002  0.000  0.000  0.001  0.026
   35  0.000  0.001  0.000  0.001  0.000  0.002  0.000  0.002  0.002  0.008
   36  0.000  0.001  0.000  0.001  0.000  0.002  0.000  0.002  0.002  0.008
tot    0.285  0.022  0.036  0.022  0.000  0.102  0.004  0.102  0.112  0.686
 
band     8 # energy   -6.50673202 # occ.  2.00000000
 
ion      s     py     pz     px    dxy    dyz    dz2    dxz  x2-y2    tot
    1  0.009  0.001  0.001  0.001  0.000  0.001  0.000  0.001  0.000  0.015
    2  0.002  0.001  0.000  0.000  0.000  0.001  0.000  0.000  0.006  0.011
    3  0.009  0.001  0.001  0.001  0.000  0.001  0.000  0.001  0.000  0.015
    4  0.002  0.000  0.000  0.001  0.000  0.000  0.000  0.001  0.006  0.011
    5  0.036  0.000  0.003  0.000  0.000  0.000  0.000  0.000  0.000  0.039
    6  0.002  0.000  0.000  0.001  0.000  0.000  0.000  0.001  0.006  0.011
    7  0.009  0.001  0.001  0.001  0.000  0.001  0.000  0.001  0.000  0.015
    8  0.002  0.001  0.000  0.000  0.000  0.001  0.000  0.000  0.006  0.011
    9  0.009  0.001  0.001  0.001  0.000  0.001  0.000  0.001  0.000  0.015
   10  0.025  0.000  0.005  0.000  0.000  0.000  0.001  0.000  0.000  0.031
   11  0.002  0.000  0.000  0.001  0.000  0.000  0.000  0.007  0.008  0.018
   12  0.002  0.000  0.000  0.001  0.000  0.000  0.000  0.007  0.008  0.018
   13  0.002  0.001  0.000  0.000  0.000  0.007  0.000  0.000  0.008  0.018
   14  0.006  0.001  0.001  0.001  0.000  0.007  0.000  0.007  0.000  0.024
   15  0.006  0.001  0.001  0.001  0.000  0.007  0.000  0.007  0.000  0.024
   16  0.002  0.001  0.000  0.000  0.000  0.007  0.000  0.000  0.008  0.018
   17  0.006  0.001  0.001  0.001  0.000  0.007  0.000  0.007  0.000  0.024
   18  0.006  0.001  0.001  0.001  0.000  0.007  0.000  0.007  0.000  0.024
   19  0.007  0.001  0.001  0.001  0.000  0.007  0.000  0.007  0.000  0.023
   20  0.002  0.001  0.000  0.000  0.000  0.007  0.000  0.000  0.009  0.019
   21  0.007  0.001  0.001  0.001  0.000  0.007  0.000  0.007  0.000  0.023
   22  0.002  0.000  0.000  0.001  0.000  0.000  0.000  0.007  0.009  0.019
   23  0.029  0.000  0.005  0.000  0.000  0.000  0.001  0.000  0.000  0.034
   24  0.002  0.000  0.000  0.001  0.000  0.000  0.000  0.007  0.009  0.019
   25  0.007  0.001  0.001  0.001  0.000  0.007  0.000  0.007  0.000  0.023
   26  0.002  0.001  0.000  0.000  0.000  0.007  0.000  0.000  0.009  0.019
   27  0.007  0.001  0.001  0.001  0.000  0.007  0.000  0.007  0.000  0.023
   28  0.037  0.000  0.003  0.000  0.000  0.000  0.000  0.000  0.000  0.040
   29  0.002  0.000  0.000  0.001  0.000  0.000  0.000  0.002  0.005  0.011
   30  0.002  0.000  0.000  0.001  0.000  0.000  0.000  0.002  0.005  0.011
   31  0.002  0.001  0.000  0.000  0.000  0.002  0.000  0.000  0.005  0.011
   32  0.009  0.001  0.001  0.001  0.000  0.002  0.000  0.002  0.000  0.016
   33  0.009  0.001  0.001  0.001  0.000  0.002  0.000  0.002  0.000  0.016
   34  0.002  0.001  0.000  0.000  0.000  0.002  0.000  0.000  0.005  0.011
   35  0.009  0.001  0.001  0.001  0.000  0.002  0.000  0.002  0.000  0.016
   36  0.009  0.001  0.001  0.001  0.000  0.002  0.000  0.002  0.000  0.016
tot    0.285  0.022  0.036  0.022  0.000  0.102  0.004  0.102  0.112  0.686
 
band     9 # energy   -6.50672922 # occ.  2.00000000
 
ion      s     py     pz     px    dxy    dyz    dz2    dxz  x2-y2    tot
    1  0.027  0.000  0.002  0.000  0.000  0.000  0.000  0.000  0.000  0.031
    2  0.006  0.000  0.001  0.002  0.000  0.000  0.000  0.002  0.002  0.013
    3  0.000  0.000  0.000  0.000  0.000  0.000  0.000  0.000  0.007  0.009
    4  0.007  0.002  0.001  0.000  0.000  0.002  0.000  0.000  0.002  0.014
    5  0.000  0.002  0.000  0.002  0.000  0.002  0.000  0.002  0.000  0.007
    6  0.007  0.002  0.001  0.000  0.000  0.002  0.000  0.000  0.002  0.014
    7  0.000  0.000  0.000  0.000  0.000  0.000  0.000  0.000  0.007  0.009
    8  0.006  0.000  0.001  0.002  0.000  0.000  0.000  0.002  0.002  0.013
    9  0.027  0.000  0.002  0.000  0.000  0.000  0.000  0.000  0.000  0.031
   10  0.000  0.001  0.000  0.001  0.000  0.009  0.000  0.010  0.000  0.021
   11  0.005  0.001  0.001  0.000  0.000  0.009  0.000  0.003  0.003  0.022
   12  0.005  0.001  0.001  0.000  0.000  0.009  0.000  0.003  0.003  0.022
   13  0.004  0.000  0.001  0.001  0.000  0.002  0.000  0.010  0.003  0.022
   14  0.019  0.000  0.004  0.000  0.000  0.002  0.001  0.003  0.000  0.028
   15  0.000  0.000  0.000  0.000  0.000  0.002  0.000  0.003  0.011  0.016
   16  0.004  0.000  0.001  0.001  0.000  0.002  0.000  0.010  0.003  0.022
   17  0.000  0.000  0.000  0.000  0.000  0.002  0.000  0.003  0.011  0.016
   18  0.019  0.000  0.004  0.000  0.000  0.002  0.001  0.003  0.000  0.028
   19  0.022  0.000  0.003  0.000  0.000  0.002  0.001  0.002  0.000  0.031
   20  0.005  0.000  0.001  0.001  0.000  0.002  0.000  0.009  0.003  0.022
   21  0.000  0.000  0.000  0.000  0.000  0.002  0.000  0.002  0.012  0.017
   22  0.006  0.001  0.001  0.000  0.000  0.008  0.000  0.002  0.003  0.022
   23  0.000  0.001  0.000  0.001  0.000  0.008  0.000  0.009  0.000  0.019
   24  0.006  0.001  0.001  0.000  0.000  0.008  0.000  0.002  0.003  0.022
   25  0.000  0.000  0.000  0.000  0.000  0.002  0.000  0.002  0.012  0.017
   26  0.005  0.000  0.001  0.001  0.000  0.002  0.000  0.009  0.003  0.022
   27  0.022  0.000  0.003  0.000  0.000  0.002  0.001  0.002  0.000  0.031
   28  0.000  0.002  0.000  0.002  0.000  0.002  0.000  0.002  0.000  0.008
   29  0.007  0.002  0.001  0.000  0.000  0.002  0.000  0.001  0.002  0.014
   30  0.007  0.002  0.001  0.000  0.000  0.002  0.000  0.001  0.002  0.014
   31  0.007  0.000  0.001  0.002  0.000  0.000  0.000  0.002  0.002  0.014
   32  0.027  0.000  0.002  0.000  0.000  0.000  0.000  0.001  0.000  0.032
   33  0.000  0.000  0.000  0.000  0.000  0.000  0.000  0.001  0.007  0.009
   34  0.007  0.000  0.001  0.002  0.000  0.000  0.000  0.002  0.002  0.014
   35  0.000  0.000  0.000  0.000  0.000  0.000  0.000  0.001  0.007  0.009
   36  0.027  0.000  0.002  0.000  0.000  0.000  0.000  0.001  0.000  0.032
tot    0.285  0.021  0.036  0.023  0.000  0.097  0.004  0.107  0.112  0.686
 
band    10 # energy   -6.50672922 # occ.  2.00000000
 
ion      s     py     pz     px    dxy    dyz    dz2    dxz  x2-y2    tot
    1  0.000  0.000  0.000  0.000  0.000  0.000  0.000  0.000  0.007  0.009
    2  0.007  0.000  0.001  0.002  0.000  0.000  0.000  0.002  0.002  0.014
    3  0.027  0.000  0.002  0.000  0.000  0.000  0.000  0.000  0.000  0.031
    4  0.006  0.002  0.001  0.000  0.000  0.002  0.000  0.000  0.002  0.013
    5  0.000  0.002  0.000  0.002  0.000  0.002  0.000  0.002  0.000  0.007
    6  0.006  0.002  0.001  0.000  0.000  0.002  0.000  0.000  0.002  0.013
    7  0.027  0.000  0.002  0.000  0.000  0.000  0.000  0.000  0.000  0.031
    8  0.007  0.000  0.001  0.002  0.000  0.000  0.000  0.002  0.002  0.014
    9  0.000  0.000  0.000  0.000  0.000  0.000  0.000  0.000  0.007  0.009
   10  0.000  0.001  0.000  0.001  0.000  0.010  0.000  0.009  0.000  0.021
   11  0.004  0.001  0.001  0.000  0.000  0.010  0.000  0.002  0.003  0.022
   12  0.004  0.001  0.001  0.000  0.000  0.010  0.000  0.002  0.003  0.022
   13  0.005  0.000  0.001  0.001  0.000  0.003  0.000  0.009  0.003  0.022
   14  0.000  0.000  0.000  0.000  0.000  0.003  0.000  0.002  0.011  0.016
   15  0.019  0.000  0.004  0.000  0.000  0.003  0.001  0.002  0.000  0.028
   16  0.005  0.000  0.001  0.001  0.000  0.003  0.000  0.009  0.003  0.022
   17  0.019  0.000  0.004  0.000  0.000  0.003  0.001  0.002  0.000  0.028
   18  0.000  0.000  0.000  0.000  0.000  0.003  0.000  0.002  0.011  0.016
   19  0.000  0.000  0.000  0.000  0.000  0.002  0.000  0.002  0.012  0.017
   20  0.006  0.000  0.001  0.001  0.000  0.002  0.000  0.008  0.003  0.022
   21  0.022  0.000  0.003  0.000  0.000  0.002  0.001  0.002  0.000  0.031
   22  0.005  0.001  0.001  0.000  0.000  0.009  0.000  0.002  0.003  0.022
   23  0.000  0.001  0.000  0.001  0.000  0.009  0.000  0.008  0.000  0.019
   24  0.005  0.001  0.001  0.000  0.000  0.009  0.000  0.002  0.003  0.022
   25  0.022  0.000  0.003  0.000  0.000  0.002  0.001  0.002  0.000  0.031
   26  0.006  0.000  0.001  0.001  0.000  0.002  0.000  0.008  0.003  0.022
   27  0.000  0.000  0.000  0.000  0.000  0.002  0.000  0.002  0.012  0.017
   28  0.000  0.002  0.000  0.002  0.000  0.002  0.000  0.002  0.000  0.008
   29  0.007  0.002  0.001  0.000  0.000  0.002  0.000  0.000  0.002  0.014
   30  0.007  0.002  0.001  0.000  0.000  0.002  0.000  0.000  0.002  0.014
   31  0.007  0.000  0.001  0.002  0.000  0.001  0.000  0.002  0.002  0.014
   32  0.000  0.000  0.000  0.000  0.000  0.001  0.000  0.000  0.007  0.009
   33  0.027  0.000  0.002  0.000  0.000  0.001  0.000  0.000  0.000  0.032
   34  0.007  0.000  0.001  0.002  0.000  0.001  0.000  0.002  0.002  0.014
   35  0.027  0.000  0.002  0.000  0.000  0.001  0.000  0.000  0.000  0.032
   36  0.000  0.000  0.000  0.000  0.000  0.001  0.000  0.000  0.007  0.009
tot    0.285  0.023  0.036  0.021  0.000  0.107  0.004  0.097  0.112  0.686
 
band    11 # energy   -6.43682478 # occ.  2.00000000
 
ion      s     py     pz     px    dxy    dyz    dz2    dxz  x2-y2    tot
    1  0.013  0.000  0.000  0.000  0.000  0.000  0.010  0.000  0.000  0.023
    2  0.013  0.000  0.000  0.000  0.000  0.000  0.010  0.000  0.000  0.023
    3  0.013  0.000  0.000  0.000  0.000  0.000  0.010  0.000  0.000  0.023