<?xml version="1.0" encoding="ISO-8859-1"?>
<modeling>
 <generator>
  <i name="program" type="string">vasp </i>
  <i name="version" type="string">6.5.1  </i>
  <i name="subversion" type="string">10Mar25 (build Mar 14 2026 15:48:08) complex                          parallel </i>
  <i name="platform" type="string">LinuxNV </i>
  <i name="date" type="string">2026 03 24 </i>
  <i name="time" type="string">09:42:54 </i>
 </generator>
 <incar>
  <i type="string" name="SYSTEM">Cu(100) coverage-dependent binding (RPBE)</i>
  <i type="string" name="PREC">Normal</i>
  <i type="string" name="ALGO">Normal</i>
  <i type="int" name="ISPIN">     1</i>
  <i type="int" name="NELM">   200</i>
  <i type="int" name="IBRION">     2</i>
  <i name="EDIFF">      0.00000100</i>
  <i name="EDIFFG">     -0.03000000</i>
  <i type="int" name="NSW">   300</i>
  <i type="int" name="ISIF">     2</i>
  <i name="ENCUT">    450.00000000</i>
  <i type="string" name="LREAL">Auto</i>
  <i type="int" name="ISMEAR">     0</i>
  <i name="SIGMA">      0.10000000</i>
  <i type="logical" name="LWAVE"> F  </i>
  <i type="logical" name="LCHARG"> F  </i>
  <i type="int" name="LORBIT">    11</i>
  <i type="string" name="GGA">RP</i>
 </incar>
 <primitive_cell>
  <structure name="primitive_cell" >
   <crystal>
    <varray name="basis" >
     <v>       2.55619101       0.00000000       0.00000000 </v>
     <v>       0.00000000       2.55619101       0.00000000 </v>
     <v>       0.00000000       0.00000000      29.42250000 </v>
    </varray>
    <i name="volume">    192.24992503 </i>
    <varray name="rec_basis" >
     <v>       0.39120707       0.00000000       0.00000000 </v>
     <v>       0.00000000       0.39120707       0.00000000 </v>
     <v>       0.00000000       0.00000000       0.03398759 </v>
    </varray>
   </crystal>
   <varray name="positions" >
    <v>       0.50000000       0.50000000       0.40785113 </v>
    <v>       0.00000000       0.00000000       0.46928371 </v>
    <v>       0.50000000       0.50000000       0.53071629 </v>
    <v>       0.00000000       0.00000000       0.59214887 </v>
   </varray>
  </structure>
  <varray name="primitive_index" >
   <v type="int" >        1 </v>
   <v type="int" >       10 </v>
   <v type="int" >       19 </v>
   <v type="int" >       28 </v>
  </varray>
 </primitive_cell>
 <kpoints>
  <generation param="Gamma">
   <v type="int" name="divisions">       3        3        1 </v>
   <v name="usershift">      0.00000000       0.00000000       0.00000000 </v>
   <v name="genvec1">      0.33333333       0.00000000       0.00000000 </v>
   <v name="genvec2">      0.00000000       0.33333333       0.00000000 </v>
   <v name="genvec3">      0.00000000       0.00000000       1.00000000 </v>
   <v name="shift">      0.00000000       0.00000000       0.00000000 </v>
  </generation>
  <varray name="kpointlist" >
   <v>       0.00000000       0.00000000       0.00000000 </v>
   <v>       0.33333333       0.00000000       0.00000000 </v>
   <v>       0.33333333       0.33333333       0.00000000 </v>
  </varray>
  <varray name="weights" >
   <v>       0.11111111 </v>
   <v>       0.44444444 </v>
   <v>       0.44444444 </v>
  </varray>
 </kpoints>
 <parameters>
  <separator name="general" >
   <i type="string" name="SYSTEM">Cu(100) coverage-dependent binding (RPBE</i>
   <i type="logical" name="LCOMPAT"> F  </i>
  </separator>
  <separator name="electronic" >
   <i type="string" name="PREC">normal</i>
   <i name="ENMAX">    450.00000000</i>
   <i name="ENAUG">    586.98000000</i>
   <i name="EDIFF">      0.00000100</i>
   <i type="int" name="IALGO">    38</i>
   <i type="int" name="IWAVPR">    11</i>
   <i type="int" name="NBANDS">   237</i>
   <i type="int" name="NBANDSLOW">    -1</i>
   <i type="int" name="NBANDSHIGH">    -1</i>
   <i name="NELECT">    396.00000000</i>
   <i type="int" name="TURBO">     0</i>
   <i type="int" name="IRESTART">     0</i>
   <i type="int" name="NREBOOT">     0</i>
   <i type="int" name="NMIN">     0</i>
   <i name="EREF">      0.00000000</i>
   <separator name="electronic smearing" >
    <i type="int" name="ISMEAR">     0</i>
    <i name="SIGMA">      0.10000000</i>
    <i name="KSPACING">      0.50000000</i>
    <i type="logical" name="KGAMMA"> T  </i>
    <i type="logical" name="KBLOWUP"> T  </i>
   </separator>
   <separator name="electronic projectors" >
    <i type="logical" name="LREAL"> T  </i>
    <v name="ROPT">     -0.00050000</v>
    <i type="int" name="LMAXPAW">  -100</i>
    <i type="int" name="LMAXMIX">     2</i>
    <i type="logical" name="NLSPLINE"> F  </i>
   </separator>
   <separator name="electronic startup" >
    <i type="int" name="ISTART">     0</i>
    <i type="int" name="ICHARG">     2</i>
    <i type="int" name="INIWAV">     1</i>
   </separator>
   <separator name="electronic spin" >
    <i type="int" name="ISPIN">     1</i>
    <i type="logical" name="LNONCOLLINEAR"> F  </i>
    <v name="MAGMOM">      1.00000000      1.00000000      1.00000000      1.00000000      1.00000000      1.00000000      1.00000000      1.00000000      1.00000000      1.00000000      1.00000000      1.00000000      1.00000000      1.00000000      1.00000000      1.00000000      1.00000000      1.00000000      1.00000000      1.00000000
      1.00000000      1.00000000      1.00000000      1.00000000      1.00000000      1.00000000      1.00000000      1.00000000      1.00000000      1.00000000      1.00000000      1.00000000      1.00000000      1.00000000      1.00000000      1.00000000</v>
    <i name="NUPDOWN">     -1.00000000</i>
    <i type="logical" name="LSORBIT"> F  </i>
    <v name="SAXIS">      0.00000000      0.00000000      1.00000000</v>
    <i type="logical" name="LSPIRAL"> F  </i>
    <v name="QSPIRAL">      0.00000000      0.00000000      0.00000000</v>
    <i type="logical" name="LZEROZ"> F  </i>
   </separator>
   <separator name="electronic exchange-correlation" >
    <i type="logical" name="LASPH"> F  </i>
   </separator>
   <separator name="electronic convergence" >
    <i type="int" name="NELM">   200</i>
    <i type="int" name="NELMDL">    -5</i>
    <i type="int" name="NELMIN">     2</i>
    <i name="ENINI">    450.00000000</i>
    <separator name="electronic convergence detail" >
     <i type="logical" name="LDIAG"> T  </i>
     <i type="logical" name="LSUBROT"> F  </i>
     <i type="logical" name="LROBUST"> F  </i>
     <i type="int" name="ISEARCH">     0</i>
     <i name="WEIMIN">      0.00100000</i>
     <i name="EBREAK">      0.00000000</i>
     <i name="DEPER">      0.30000000</i>
     <i type="int" name="NRMM">     4</i>
     <i name="TIME">      0.40000000</i>
    </separator>
   </separator>
   <separator name="electronic mixer" >
    <i name="AMIX">      0.40000000</i>
    <i name="BMIX">      1.00000000</i>
    <i name="AMIN">      0.10000000</i>
    <i name="AMIX_MAG">      1.60000000</i>
    <i name="BMIX_MAG">      1.00000000</i>
    <separator name="electronic mixer details" >
     <i type="int" name="IMIX">     4</i>
     <i type="logical" name="MIXFIRST"> F  </i>
     <i type="int" name="MAXMIX">   -45</i>
     <i name="WC">    100.00000000</i>
     <i type="int" name="INIMIX">     1</i>
     <i type="int" name="MIXPRE">     1</i>
     <i type="int" name="MREMOVE">     5</i>
    </separator>
   </separator>
   <separator name="electronic dipolcorrection" >
    <i type="logical" name="LDIPOL"> F  </i>
    <i type="logical" name="LMONO"> F  </i>
    <i type="int" name="IDIPOL">     0</i>
    <i name="EPSILON">      1.00000000</i>
    <v name="DIPOL">   -100.00000000   -100.00000000   -100.00000000</v>
    <i name="EFIELD">      0.00000000</i>
    <i type="logical" name="LVACPOTAV"> F  </i>
   </separator>
  </separator>
  <separator name="grids" >
   <i type="int" name="NGX">    40</i>
   <i type="int" name="NGY">    40</i>
   <i type="int" name="NGZ">   160</i>
   <i type="int" name="NGXF">    80</i>
   <i type="int" name="NGYF">    80</i>
   <i type="int" name="NGZF">   320</i>
   <i type="logical" name="ADDGRID"> F  </i>
  </separator>
  <separator name="ionic" >
   <i type="int" name="NSW">   300</i>
   <i type="int" name="IBRION">     2</i>
   <i type="int" name="MDALGO">     0</i>
   <i type="int" name="ISIF">     2</i>
   <i name="PSTRESS">      0.00000000</i>
   <i name="EDIFFG">     -0.03000000</i>
   <i type="int" name="NFREE">     1</i>
   <i name="POTIM">      0.50000000</i>
   <i name="SMASS">     -3.00000000</i>
   <i name="SCALEE">      1.00000000</i>
  </separator>
  <separator name="ionic md" >
   <i name="TEBEG">      0.00010000</i>
   <i name="TEEND">      0.00010000</i>
   <i type="int" name="NBLOCK">     1</i>
   <i type="int" name="KBLOCK">   300</i>
   <i type="int" name="NPACO">   256</i>
   <i name="APACO">     10.00000000</i>
  </separator>
  <separator name="symmetry" >
   <i type="int" name="ISYM">     2</i>
   <i name="SYMPREC">      0.00001000</i>
  </separator>
  <separator name="dos" >
   <i type="int" name="LORBIT">    11</i>
   <v name="RWIGS">     -1.00000000</v>
   <i type="int" name="NEDOS">   301</i>
   <i name="EMIN">     10.00000000</i>
   <i name="EMAX">    -10.00000000</i>
   <i name="EFERMI">      0.00000000</i>
  </separator>
  <separator name="writing" >
   <i type="int" name="NWRITE">     2</i>
   <i type="logical" name="LWAVE"> F  </i>
   <i type="logical" name="LDOWNSAMPLE"> F  </i>
   <i type="logical" name="LCHARG"> F  </i>
   <i type="logical" name="LPARD"> F  </i>
   <i type="logical" name="LVTOT"> F  </i>
   <i type="logical" name="LVHAR"> F  </i>
   <i type="logical" name="LELF"> F  </i>
   <i type="logical" name="LOPTICS"> F  </i>
   <v name="STM">      0.00000000      0.00000000      0.00000000      0.00000000      0.00000000      0.00000000      0.00000000</v>
  </separator>
  <separator name="performance" >
   <i type="int" name="NPAR">     1</i>
   <i type="int" name="NSIM">     4</i>
   <i type="int" name="NBLK">    -1</i>
   <i type="logical" name="LPLANE"> T  </i>
   <i type="logical" name="LSCALAPACK"> T  </i>
   <i type="logical" name="LSCAAWARE"> F  </i>
   <i type="logical" name="LSCALU"> F  </i>
   <i type="logical" name="LASYNC"> F  </i>
   <i type="logical" name="LORBITALREAL"> F  </i>
  </separator>
  <separator name="miscellaneous" >
   <i type="int" name="IDIOT">     3</i>
   <i type="int" name="PHON_NSTRUCT">    -1</i>
   <i type="logical" name="LMUSIC"> F  </i>
   <v name="POMASS">     63.54600000</v>
   <v name="DARWINR">      0.00000000</v>
   <v name="DARWINV">      1.00000000</v>
   <i type="logical" name="LCORR"> T  </i>
  </separator>
  <i type="logical" name="GGA_COMPAT"> T  </i>
  <i type="logical" name="LBERRY"> F  </i>
  <i type="int" name="ICORELEVEL">     0</i>
  <i type="logical" name="LDAU"> F  </i>
  <i type="int" name="I_CONSTRAINED_M">     0</i>
  <separator name="electronic exchange-correlation" >
   <i type="string" name="GGA    ">RP</i>
   <i type="string" name="XC_C">1</i>
   <i type="int" name="VOSKOWN">     0</i>
   <i type="logical" name="LHFCALC"> F  </i>
   <i type="string" name="PRECFOCK"></i>
   <i type="logical" name="LSYMGRAD"> F  </i>
   <i type="logical" name="LHFONE"> F  </i>
   <i type="logical" name="LRHFCALC"> F  </i>
   <i type="logical" name="LTHOMAS"> F  </i>
   <i type="logical" name="LMODELHF"> F  </i>
   <i type="logical" name="LFOCKACE"> F  </i>
   <i name="ENCUT4O">     -1.00000000</i>
   <i type="int" name="EXXOEP">     0</i>
   <i type="int" name="FOURORBIT">     0</i>
   <i name="AEXX">      0.00000000</i>
   <i name="HFALPHA">      0.00000000</i>
   <i name="MCALPHA">      0.00000000</i>
   <i name="ALDAX">      1.00000000</i>
   <i name="AGGAX">      1.00000000</i>
   <i name="AMGGAX">      1.00000000</i>
   <i name="ALDAC">      1.00000000</i>
   <i name="AGGAC">      1.00000000</i>
   <i name="AMGGAC">      1.00000000</i>
   <i type="int" name="NKREDX">     1</i>
   <i type="int" name="NKREDY">     1</i>
   <i type="int" name="NKREDZ">     1</i>
   <i type="logical" name="SHIFTRED"> F  </i>
   <i type="logical" name="ODDONLY"> F  </i>
   <i type="logical" name="EVENONLY"> F  </i>
   <i type="int" name="LMAXFOCK">     0</i>
   <i type="int" name="NMAXFOCKAE">     0</i>
   <i type="logical" name="LFOCKAEDFT"> F  </i>
   <i name="HFSCREEN">      0.00000000</i>
   <i name="HFSCREENC">      0.00000000</i>
   <i type="int" name="NBANDSGWLOW">     0</i>
  </separator>
  <separator name="vdW DFT" >
   <i type="logical" name="LUSE_VDW"> F  </i>
   <i type="int" name="IVDW_NL">    -1</i>
   <i type="logical" name="LSPIN_VDW"> F  </i>
   <i name="ZAB_VDW">     -0.84910000</i>
   <i name="GAMMA_VDW">      1.39626340</i>
   <i name="ALPHA_VDW">      0.00000000</i>
   <i name="PARAM1">      0.12340000</i>
   <i name="PARAM2">      1.00000000</i>
   <i name="BPARAM">      6.30000000</i>
   <i name="CPARAM">      0.00930000</i>
  </separator>
  <separator name="model GW" >
   <i type="int" name="MODEL_GW">     0</i>
   <i name="MODEL_EPS0">     28.83748875</i>
   <i name="MODEL_ALPHA">      1.00000000</i>
  </separator>
  <separator name="linear response parameters" >
   <i type="logical" name="LEPSILON"> F  </i>
   <i type="logical" name="LRPA"> F  </i>
   <i type="logical" name="LNABLA"> F  </i>
   <i type="logical" name="LVEL"> F  </i>
   <i name="CSHIFT">      0.10000000</i>
   <i name="OMEGAMAX">     -1.00000000</i>
   <i name="DEG_THRESHOLD">      0.00200000</i>
   <i name="RTIME">     -0.10000000</i>
   <i name="WPLASMAI">      0.00000000</i>
   <v name="DFIELD">      0.00000000      0.00000000      0.00000000</v>
   <v name="WPLASMA">      0.00000000      0.00000000      0.00000000      0.00000000      0.00000000      0.00000000      0.00000000      0.00000000      0.00000000</v>
  </separator>
  <separator name="orbital magnetization" >
   <i type="logical" name="NUCIND"> F  </i>
   <v name="MAGPOS">      0.00000000      0.00000000      0.00000000</v>
   <i type="logical" name="LNICSALL"> T  </i>
   <i type="logical" name="ORBITALMAG"> F  </i>
   <i type="logical" name="LMAGBLOCH"> F  </i>
   <i type="logical" name="LCHIMAG"> F  </i>
   <i type="logical" name="LGAUGE"> T  </i>
   <i type="int" name="MAGATOM">     0</i>
   <v name="MAGDIPOL">      0.00000000      0.00000000      0.00000000</v>
   <v name="AVECCONST">      0.00000000      0.00000000      0.00000000</v>
  </separator>
  <separator name="response functions" >
   <i type="logical" name="LALL_IN_ONE"> F  </i>
   <i type="int" name="IALL_IN_ONE">    -1</i>
   <i type="int" name="NBANDS_WAVE">    -1</i>
   <i type="logical" name="LFINITE_TEMPERATURE"> F  </i>
   <i type="logical" name="LADDER"> F  </i>
   <i type="logical" name="LRPAFORCE"> F  </i>
   <i type="logical" name="LFXC"> F  </i>
   <i type="logical" name="LHARTREE"> T  </i>
   <i type="int" name="IBSE">     2</i>
   <v type="int" name="KPOINT">    -1     0     0     0</v>
   <i type="logical" name="LTCTC"> F  </i>
   <i type="logical" name="LTCTE"> F  </i>
   <i type="logical" name="LTETE"> F  </i>
   <i type="logical" name="LTRIPLET"> F  </i>
   <i type="logical" name="LFXCEPS"> F  </i>
   <i type="logical" name="LFXHEG"> F  </i>
   <i type="int" name="NATURALO">     2</i>
   <i type="logical" name="LHOLEGF"> F  </i>
   <i type="logical" name="L2ORDER"> F  </i>
   <i type="logical" name="LDMP1"> F  </i>
   <i type="logical" name="LMP2LT"> F  </i>
   <i type="logical" name="LSMP2LT"> F  </i>
   <i type="logical" name="LGWLF"> F  </i>
   <i name="ENCUTGW">     -1.60000002</i>
   <i name="ENCUTGWSOFT">     -1.60000002</i>
   <i name="ENCUTLF">     -1.00000000</i>
   <i type="logical" name="ESF_SPLINES"> F  </i>
   <i name="ESF_CONV">      0.01000000</i>
   <i type="int" name="ESF_NINTER">    15</i>
   <i type="int" name="LMAXMP2">    -1</i>
   <i name="SCISSOR">      0.00000000</i>
   <i type="int" name="NOMEGA">     0</i>
   <i type="int" name="NOMEGAR">     0</i>
   <i type="int" name="NBANDSGW">    -1</i>
   <i type="int" name="NBANDSO">    -1</i>
   <i type="int" name="NBANDSV">    -1</i>
   <i type="int" name="NELMGW">     1</i>
   <i type="int" name="NELMHF">     1</i>
   <i type="int" name="DIM">     3</i>
   <i type="int" name="IESPILON">     4</i>
   <i type="int" name="ANTIRES">     0</i>
   <i name="OMEGAMAX">    -30.00000000</i>
   <i name="OMEGAMIN">    -30.00000000</i>
   <i name="OMEGATL">   -200.00000000</i>
   <i type="int" name="OMEGAGRID">     0</i>
   <i name="CSHIFT">     -0.10000000</i>
   <i type="logical" name="LSELFENERGY"> F  </i>
   <i type="logical" name="LSPECTRAL"> F  </i>
   <i type="logical" name="LSPECTRALGW"> F  </i>
   <i type="logical" name="LSINGLES"> F  </i>
   <i type="logical" name="LFERMIGW"> F  </i>
   <i type="logical" name="ODDONLYGW"> F  </i>
   <i type="logical" name="EVENONLYGW"> F  </i>
   <i type="int" name="NKREDLFX">     1</i>
   <i type="int" name="NKREDLFY">     1</i>
   <i type="int" name="NKREDLFZ">     1</i>
   <i type="int" name="MAXMEM">  2800</i>
   <i type="int" name="TELESCOPE">     0</i>
   <i type="int" name="NTAUPAR">    -1</i>
   <i type="int" name="NOMEGAPAR">    -1</i>
   <i name="DAMP_NEWTON">      0.80000001</i>
   <i name="LAMBDA">      1.00000000</i>
  </separator>
  <separator name="External order field" >
   <i name="OFIELD_KAPPA">      0.00000000</i>
   <v name="OFIELD_K">      0.00000000      0.00000000      0.00000000</v>
   <i name="OFIELD_Q6_NEAR">      0.00000000</i>
   <i name="OFIELD_Q6_FAR">      0.00000000</i>
   <i name="OFIELD_A">      0.00000000</i>
  </separator>
  <separator name="optional k-points parameters" >
   <i type="int" name="KPOINTS_OPT_MODE">     1</i>
   <i type="logical" name="LKPOINTS_OPT"> F  </i>
  </separator>
 </parameters>
 <atominfo>
  <atoms>      36 </atoms>
  <types>       1 </types>
  <array name="atoms" >
   <dimension dim="1">ion</dimension>
   <field type="string">element</field>
   <field type="int">atomtype</field>
   <set>
    <rc><c>Cu</c><c>   1</c></rc>
    <rc><c>Cu</c><c>   1</c></rc>
    <rc><c>Cu</c><c>   1</c></rc>
    <rc><c>Cu</c><c>   1</c></rc>
    <rc><c>Cu</c><c>   1</c></rc>
    <rc><c>Cu</c><c>   1</c></rc>
    <rc><c>Cu</c><c>   1</c></rc>
    <rc><c>Cu</c><c>   1</c></rc>
    <rc><c>Cu</c><c>   1</c></rc>
    <rc><c>Cu</c><c>   1</c></rc>
    <rc><c>Cu</c><c>   1</c></rc>
    <rc><c>Cu</c><c>   1</c></rc>
    <rc><c>Cu</c><c>   1</c></rc>
    <rc><c>Cu</c><c>   1</c></rc>
    <rc><c>Cu</c><c>   1</c></rc>
    <rc><c>Cu</c><c>   1</c></rc>
    <rc><c>Cu</c><c>   1</c></rc>
    <rc><c>Cu</c><c>   1</c></rc>
    <rc><c>Cu</c><c>   1</c></rc>
    <rc><c>Cu</c><c>   1</c></rc>
    <rc><c>Cu</c><c>   1</c></rc>
    <rc><c>Cu</c><c>   1</c></rc>
    <rc><c>Cu</c><c>   1</c></rc>
    <rc><c>Cu</c><c>   1</c></rc>
    <rc><c>Cu</c><c>   1</c></rc>
    <rc><c>Cu</c><c>   1</c></rc>
    <rc><c>Cu</c><c>   1</c></rc>
    <rc><c>Cu</c><c>   1</c></rc>
    <rc><c>Cu</c><c>   1</c></rc>
    <rc><c>Cu</c><c>   1</c></rc>
    <rc><c>Cu</c><c>   1</c></rc>
    <rc><c>Cu</c><c>   1</c></rc>
    <rc><c>Cu</c><c>   1</c></rc>
    <rc><c>Cu</c><c>   1</c></rc>
    <rc><c>Cu</c><c>   1</c></rc>
    <rc><c>Cu</c><c>   1</c></rc>
   </set>
  </array>
  <array name="atomtypes" >
   <dimension dim="1">type</dimension>
   <field type="int">atomspertype</field>
   <field type="string">element</field>
   <field>mass</field>
   <field>valence</field>
   <field type="string">pseudopotential</field>
   <set>
    <rc><c>  36</c><c>Cu</c><c>     63.54600000</c><c>     11.00000000</c><c>  PAW_PBE Cu 22Jun2005                  </c></rc>
   </set>
  </array>
 </atominfo>
 <structure name="initialpos" >
  <crystal>
   <varray name="basis" >
    <v>       7.66857304       0.00000000       0.00000000 </v>
    <v>       0.00000000       7.66857304       0.00000000 </v>
    <v>       0.00000000       0.00000000      29.42250000 </v>
   </varray>
   <i name="volume">   1730.24932528 </i>
   <varray name="rec_basis" >
    <v>       0.13040236       0.00000000       0.00000000 </v>
    <v>       0.00000000       0.13040236       0.00000000 </v>
    <v>       0.00000000       0.00000000       0.03398759 </v>
   </varray>
  </crystal>
  <varray name="positions" >
   <v>       0.16666667       0.16666667       0.40785113 </v>
   <v>       0.50000000       0.16666667       0.40785113 </v>
   <v>       0.83333333       0.16666667       0.40785113 </v>
   <v>       0.16666667       0.50000000       0.40785113 </v>
   <v>       0.50000000       0.50000000       0.40785113 </v>
   <v>       0.83333333       0.50000000       0.40785113 </v>
   <v>       0.16666667       0.83333333       0.40785113 </v>
   <v>       0.50000000       0.83333333       0.40785113 </v>
   <v>       0.83333333       0.83333333       0.40785113 </v>
   <v>       0.00000000       0.00000000       0.46928371 </v>
   <v>       0.33333333       0.00000000       0.46928371 </v>
   <v>       0.66666667       0.00000000       0.46928371 </v>
   <v>       0.00000000       0.33333333       0.46928371 </v>
   <v>       0.33333333       0.33333333       0.46928371 </v>
   <v>       0.66666667       0.33333333       0.46928371 </v>
   <v>       0.00000000       0.66666667       0.46928371 </v>
   <v>       0.33333333       0.66666667       0.46928371 </v>
   <v>       0.66666667       0.66666667       0.46928371 </v>
   <v>       0.16666667       0.16666667       0.53071629 </v>
   <v>       0.50000000       0.16666667       0.53071629 </v>
   <v>       0.83333333       0.16666667       0.53071629 </v>
   <v>       0.16666667       0.50000000       0.53071629 </v>
   <v>       0.50000000       0.50000000       0.53071629 </v>
   <v>       0.83333333       0.50000000       0.53071629 </v>
   <v>       0.16666667       0.83333333       0.53071629 </v>
   <v>       0.50000000       0.83333333       0.53071629 </v>
   <v>       0.83333333       0.83333333       0.53071629 </v>
   <v>       0.00000000       0.00000000       0.59214887 </v>
   <v>       0.33333333       0.00000000       0.59214887 </v>
   <v>       0.66666667       0.00000000       0.59214887 </v>
   <v>       0.00000000       0.33333333       0.59214887 </v>
   <v>       0.33333333       0.33333333       0.59214887 </v>
   <v>       0.66666667       0.33333333       0.59214887 </v>
   <v>       0.00000000       0.66666667       0.59214887 </v>
   <v>       0.33333333       0.66666667       0.59214887 </v>
   <v>       0.66666667       0.66666667       0.59214887 </v>
  </varray>
  <varray name="selective"  type="logical" >
   <v type="logical" >  F  F  F </v>
   <v type="logical" >  F  F  F </v>
   <v type="logical" >  F  F  F </v>
   <v type="logical" >  F  F  F </v>
   <v type="logical" >  F  F  F </v>
   <v type="logical" >  F  F  F </v>
   <v type="logical" >  F  F  F </v>
   <v type="logical" >  F  F  F </v>
   <v type="logical" >  F  F  F </v>
   <v type="logical" >  F  F  F </v>
   <v type="logical" >  F  F  F </v>
   <v type="logical" >  F  F  F </v>
   <v type="logical" >  F  F  F </v>
   <v type="logical" >  F  F  F </v>
   <v type="logical" >  F  F  F </v>
   <v type="logical" >  F  F  F </v>
   <v type="logical" >  F  F  F </v>
   <v type="logical" >  F  F  F </v>
   <v type="logical" >  T  T  T </v>
   <v type="logical" >  T  T  T </v>
   <v type="logical" >  T  T  T </v>
   <v type="logical" >  T  T  T </v>
   <v type="logical" >  T  T  T </v>
   <v type="logical" >  T  T  T </v>
   <v type="logical" >  T  T  T </v>
   <v type="logical" >  T  T  T </v>
   <v type="logical" >  T  T  T </v>
   <v type="logical" >  T  T  T </v>
   <v type="logical" >  T  T  T </v>
   <v type="logical" >  T  T  T </v>
   <v type="logical" >  T  T  T </v>
   <v type="logical" >  T  T  T </v>
   <v type="logical" >  T  T  T </v>
   <v type="logical" >  T  T  T </v>
   <v type="logical" >  T  T  T </v>
   <v type="logical" >  T  T  T </v>
  </varray>
  <nose>
   <v>      -3.00000000       0.00000000       0.00010000       0.00010000 </v>
  </nose>
 </structure>
 <calculation>
  <scstep>
   <time name="dav">    1.66    1.66</time>
   <time name="total">    1.71    1.72</time>
   <energy>
    <i name="alphaZ">    547.78298255 </i>
    <i name="ewald"> 303873.87108047 </i>
    <i name="hartreedc">-351057.14734428 </i>
    <i name="XCdc">   1616.51172603 </i>
    <i name="pawpsdc">  44243.50493509 </i>
    <i name="pawaedc"> -48017.47383163 </i>
    <i name="eentropy">     -0.08187743 </i>
    <i name="bandstr">   2170.22023907 </i>
    <i name="atom">  50037.70483787 </i>
    <i name="e_fr_energy">   3414.89274774 </i>
    <i name="e_wo_entrp">   3414.97462517 </i>
    <i name="e_0_energy">   3414.93368646 </i>
   </energy>
  </scstep>
  <scstep>
   <time name="dav">    1.55    1.55</time>
   <time name="total">    1.55    1.55</time>
   <energy>
    <i name="e_fr_energy">    220.32961305 </i>
    <i name="e_wo_entrp">    220.39969443 </i>
    <i name="e_0_energy">    220.36465374 </i>
   </energy>
  </scstep>
  <scstep>
   <time name="dav">    1.62    1.62</time>
   <time name="total">    1.62    1.62</time>
   <energy>
    <i name="e_fr_energy">   -112.45849154 </i>
    <i name="e_wo_entrp">   -112.36140148 </i>
    <i name="e_0_energy">   -112.40994651 </i>
   </energy>
  </scstep>
  <scstep>
   <time name="dav">    1.67    1.67</time>
   <time name="total">    1.67    1.67</time>
   <energy>
    <i name="e_fr_energy">   -131.58866677 </i>
    <i name="e_wo_entrp">   -131.49996183 </i>
    <i name="e_0_energy">   -131.54431430 </i>
   </energy>
  </scstep>
  <scstep>
   <time name="dav">    1.74    1.74</time>
   <time name="total">    1.89    1.90</time>
   <energy>
    <i name="e_fr_energy">   -132.21277012 </i>
    <i name="e_wo_entrp">   -132.12394575 </i>
    <i name="e_0_energy">   -132.16835794 </i>
   </energy>
  </scstep>
  <scstep>
   <time name="dav">    1.73    1.74</time>
   <time name="total">    1.92    1.93</time>
   <energy>
    <i name="e_fr_energy">   -118.78556981 </i>
    <i name="e_wo_entrp">   -118.69389596 </i>
    <i name="e_0_energy">   -118.73973289 </i>
   </energy>
  </scstep>
  <scstep>
   <time name="dav">    1.80    1.80</time>
   <time name="total">    1.99    1.99</time>
   <energy>
    <i name="e_fr_energy">   -107.97516807 </i>
    <i name="e_wo_entrp">   -107.90521342 </i>
    <i name="e_0_energy">   -107.94019074 </i>
   </energy>
  </scstep>
  <scstep>
   <time name="dav">    1.72    1.73</time>
   <time name="total">    1.92    1.92</time>
   <energy>
    <i name="e_fr_energy">   -108.13127013 </i>
    <i name="e_wo_entrp">   -108.06142543 </i>
    <i name="e_0_energy">   -108.09634778 </i>
   </energy>
  </scstep>
  <scstep>
   <time name="dav">    1.74    1.74</time>
   <time name="total">    1.93    1.93</time>
   <energy>
    <i name="e_fr_energy">   -108.27142885 </i>
    <i name="e_wo_entrp">   -108.18927457 </i>
    <i name="e_0_energy">   -108.23035171 </i>
   </energy>
  </scstep>
  <scstep>
   <time name="dav">    1.65    1.66</time>
   <time name="total">    1.85    1.85</time>
   <energy>
    <i name="e_fr_energy">   -108.07203146 </i>
    <i name="e_wo_entrp">   -108.00283857 </i>
    <i name="e_0_energy">   -108.03743501 </i>
   </energy>
  </scstep>
  <scstep>
   <time name="dav">    1.73    1.73</time>
   <time name="total">    1.93    1.93</time>
   <energy>
    <i name="e_fr_energy">   -108.00800500 </i>
    <i name="e_wo_entrp">   -107.93470491 </i>
    <i name="e_0_energy">   -107.97135496 </i>
   </energy>
  </scstep>
  <scstep>
   <time name="dav">    1.72    1.72</time>
   <time name="total">    1.91    1.92</time>
   <energy>
    <i name="e_fr_energy">   -107.98059834 </i>
    <i name="e_wo_entrp">   -107.90498084 </i>
    <i name="e_0_energy">   -107.94278959 </i>
   </energy>
  </scstep>
  <scstep>
   <time name="dav">    1.75    1.75</time>
   <time name="total">    1.94    1.95</time>
   <energy>
    <i name="e_fr_energy">   -107.97627564 </i>
    <i name="e_wo_entrp">   -107.89949292 </i>
    <i name="e_0_energy">   -107.93788428 </i>
   </energy>
  </scstep>
  <scstep>
   <time name="dav">    1.72    1.72</time>
   <time name="total">    1.92    1.92</time>
   <energy>
    <i name="e_fr_energy">   -107.97379226 </i>
    <i name="e_wo_entrp">   -107.89627650 </i>
    <i name="e_0_energy">   -107.93503438 </i>
   </energy>
  </scstep>
  <scstep>
   <time name="dav">    1.74    1.74</time>
   <time name="total">    1.94    1.94</time>
   <energy>
    <i name="e_fr_energy">   -107.97365228 </i>
    <i name="e_wo_entrp">   -107.89590834 </i>
    <i name="e_0_energy">   -107.93478031 </i>
   </energy>
  </scstep>
  <scstep>
   <time name="dav">    1.81    1.82</time>
   <time name="total">    2.01    2.02</time>
   <energy>
    <i name="e_fr_energy">   -107.97409083 </i>
    <i name="e_wo_entrp">   -107.89636295 </i>
    <i name="e_0_energy">   -107.93522689 </i>
   </energy>
  </scstep>
  <scstep>
   <time name="dav">    1.67    1.67</time>
   <time name="total">    1.87    1.87</time>
   <energy>
    <i name="e_fr_energy">   -107.97480437 </i>
    <i name="e_wo_entrp">   -107.89713537 </i>
    <i name="e_0_energy">   -107.93596987 </i>
   </energy>
  </scstep>
  <scstep>
   <time name="dav">    1.65    1.65</time>
   <time name="total">    1.85    1.86</time>
   <energy>
    <i name="e_fr_energy">   -107.97563458 </i>
    <i name="e_wo_entrp">   -107.89804778 </i>
    <i name="e_0_energy">   -107.93684118 </i>
   </energy>
  </scstep>
  <scstep>
   <time name="dav">    1.68    1.69</time>
   <time name="total">    1.88    1.89</time>
   <energy>
    <i name="e_fr_energy">   -107.97606201 </i>
    <i name="e_wo_entrp">   -107.89842687 </i>
    <i name="e_0_energy">   -107.93724444 </i>
   </energy>
  </scstep>
  <scstep>
   <time name="dav">    1.85    1.86</time>
   <time name="total">    2.05    2.06</time>
   <energy>
    <i name="e_fr_energy">   -107.97638824 </i>
    <i name="e_wo_entrp">   -107.89877536 </i>
    <i name="e_0_energy">   -107.93758180 </i>
   </energy>
  </scstep>
  <scstep>
   <time name="dav">    1.40    1.40</time>
   <time name="total">    1.60    1.61</time>
   <energy>
    <i name="e_fr_energy">   -107.97650166 </i>
    <i name="e_wo_entrp">   -107.89888613 </i>
    <i name="e_0_energy">   -107.93769390 </i>
   </energy>
  </scstep>
  <scstep>
   <time name="dav">    1.20    1.20</time>
   <time name="total">    1.40    1.41</time>
   <energy>
    <i name="e_fr_energy">   -107.97662906 </i>
    <i name="e_wo_entrp">   -107.89900023 </i>
    <i name="e_0_energy">   -107.93781465 </i>
   </energy>
  </scstep>
  <scstep>
   <time name="dav">    1.18    1.19</time>
   <time name="total">    1.38    1.39</time>
   <energy>
    <i name="e_fr_energy">   -107.97667475 </i>
    <i name="e_wo_entrp">   -107.89905123 </i>
    <i name="e_0_energy">   -107.93786299 </i>
   </energy>
  </scstep>
  <scstep>
   <time name="dav">    1.17    1.17</time>
   <time name="total">    1.37    1.37</time>
   <energy>
    <i name="e_fr_energy">   -107.97671402 </i>
    <i name="e_wo_entrp">   -107.89908284 </i>
    <i name="e_0_energy">   -107.93789843 </i>
   </energy>
  </scstep>
  <scstep>
   <time name="dav">    1.10    1.10</time>
   <time name="total">    1.30    1.30</time>
   <energy>
    <i name="e_fr_energy">   -107.97672085 </i>
    <i name="e_wo_entrp">   -107.89909158 </i>
    <i name="e_0_energy">   -107.93790622 </i>
   </energy>
  </scstep>
  <scstep>
   <time name="dav">    1.10    1.10</time>
   <time name="total">    1.31    1.31</time>
   <energy>
    <i name="e_fr_energy">   -107.97672450 </i>
    <i name="e_wo_entrp">   -107.89909572 </i>
    <i name="e_0_energy">   -107.93791011 </i>
   </energy>
  </scstep>
  <scstep>
   <time name="dav">    1.08    1.08</time>
   <time name="total">    1.12    1.12</time>
   <energy>
    <i name="alphaZ">    547.78298255 </i>
    <i name="ewald"> 303873.87108047 </i>
    <i name="hartreedc">-350669.86282645 </i>
    <i name="XCdc">   1583.67966405 </i>
    <i name="pawpsdc">  46721.55598351 </i>
    <i name="pawaedc"> -50566.66856090 </i>
    <i name="eentropy">     -0.07762897 </i>
    <i name="bandstr">  -1635.96225709 </i>
    <i name="atom">  50037.70483787 </i>
    <i name="e_fr_energy">   -107.97672496 </i>
    <i name="e_wo_entrp">   -107.89909600 </i>
    <i name="e_0_energy">   -107.93791048 </i>
   </energy>
  </scstep>
  <structure>
   <crystal>
    <varray name="basis" >
     <v>       7.66857304       0.00000000       0.00000000 </v>
     <v>       0.00000000       7.66857304       0.00000000 </v>
     <v>       0.00000000       0.00000000      29.42250000 </v>
    </varray>
    <i name="volume">   1730.24932528 </i>
    <varray name="rec_basis" >
     <v>       0.13040236       0.00000000       0.00000000 </v>
     <v>       0.00000000       0.13040236       0.00000000 </v>
     <v>       0.00000000       0.00000000       0.03398759 </v>
    </varray>
   </crystal>
   <varray name="positions" >
    <v>       0.16666667       0.16666667       0.40785113 </v>
    <v>       0.50000000       0.16666667       0.40785113 </v>
    <v>       0.83333333       0.16666667       0.40785113 </v>
    <v>       0.16666667       0.50000000       0.40785113 </v>
    <v>       0.50000000       0.50000000       0.40785113 </v>
    <v>       0.83333333       0.50000000       0.40785113 </v>
    <v>       0.16666667       0.83333333       0.40785113 </v>
    <v>       0.50000000       0.83333333       0.40785113 </v>
    <v>       0.83333333       0.83333333       0.40785113 </v>
    <v>       0.00000000       0.00000000       0.46928371 </v>
    <v>       0.33333333       0.00000000       0.46928371 </v>
    <v>       0.66666667       0.00000000       0.46928371 </v>
    <v>       0.00000000       0.33333333       0.46928371 </v>
    <v>       0.33333333       0.33333333       0.46928371 </v>
    <v>       0.66666667       0.33333333       0.46928371 </v>
    <v>       0.00000000       0.66666667       0.46928371 </v>
    <v>       0.33333333       0.66666667       0.46928371 </v>
    <v>       0.66666667       0.66666667       0.46928371 </v>
    <v>       0.16666667       0.16666667       0.53071629 </v>
    <v>       0.50000000       0.16666667       0.53071629 </v>
    <v>       0.83333333       0.16666667       0.53071629 </v>
    <v>       0.16666667       0.50000000       0.53071629 </v>
    <v>       0.50000000       0.50000000       0.53071629 </v>
    <v>       0.83333333       0.50000000       0.53071629 </v>
    <v>       0.16666667       0.83333333       0.53071629 </v>
    <v>       0.50000000       0.83333333       0.53071629 </v>
    <v>       0.83333333       0.83333333       0.53071629 </v>
    <v>       0.00000000       0.00000000       0.59214887 </v>
    <v>       0.33333333       0.00000000       0.59214887 </v>
    <v>       0.66666667       0.00000000       0.59214887 </v>
    <v>       0.00000000       0.33333333       0.59214887 </v>
    <v>       0.33333333       0.33333333       0.59214887 </v>
    <v>       0.66666667       0.33333333       0.59214887 </v>
    <v>       0.00000000       0.66666667       0.59214887 </v>
    <v>       0.33333333       0.66666667       0.59214887 </v>
    <v>       0.66666667       0.66666667       0.59214887 </v>
   </varray>
  </structure>
  <varray name="forces" >
   <v>      -0.00000000       0.00000000      -0.12610731 </v>
   <v>       0.00000000       0.00000000      -0.12610731 </v>
   <v>      -0.00000000      -0.00000000      -0.12610731 </v>
   <v>      -0.00000000       0.00000000      -0.12610731 </v>
   <v>      -0.00000000       0.00000000      -0.12610731 </v>
   <v>       0.00000000       0.00000000      -0.12610731 </v>
   <v>       0.00000000       0.00000000      -0.12610731 </v>
   <v>       0.00000000       0.00000000      -0.12610731 </v>
   <v>       0.00000000       0.00000000      -0.12610731 </v>
   <v>      -0.00000000       0.00000000      -0.21300847 </v>
   <v>       0.00000000       0.00000000      -0.21300847 </v>
   <v>      -0.00000000      -0.00000000      -0.21300847 </v>
   <v>      -0.00000000      -0.00000000      -0.21300847 </v>
   <v>      -0.00000000      -0.00000000      -0.21300847 </v>
   <v>       0.00000000       0.00000000      -0.21300847 </v>
   <v>      -0.00000000      -0.00000000      -0.21300847 </v>
   <v>      -0.00000000       0.00000000      -0.21300847 </v>
   <v>       0.00000000      -0.00000000      -0.21300847 </v>
   <v>       0.00000000       0.00000000       0.21301680 </v>
   <v>       0.00000000      -0.00000000       0.21301680 </v>
   <v>      -0.00000000      -0.00000000       0.21301680 </v>
   <v>      -0.00000000       0.00000000       0.21301680 </v>
   <v>      -0.00000000      -0.00000000       0.21301680 </v>
   <v>      -0.00000000       0.00000000       0.21301680 </v>
   <v>       0.00000000      -0.00000000       0.21301680 </v>
   <v>      -0.00000000       0.00000000       0.21301680 </v>
   <v>       0.00000000      -0.00000000       0.21301680 </v>
   <v>      -0.00000000      -0.00000000       0.12609898 </v>
   <v>       0.00000000       0.00000000       0.12609898 </v>
   <v>       0.00000000       0.00000000       0.12609898 </v>
   <v>      -0.00000000       0.00000000       0.12609898 </v>
   <v>       0.00000000       0.00000000       0.12609898 </v>
   <v>       0.00000000       0.00000000       0.12609898 </v>
   <v>       0.00000000      -0.00000000       0.12609898 </v>
   <v>       0.00000000       0.00000000       0.12609898 </v>
   <v>      -0.00000000      -0.00000000       0.12609898 </v>
  </varray>
  <varray name="stress" >
   <v>       1.56493345       0.00000000       0.00000000 </v>
   <v>       0.00000000       1.56493345       0.00000000 </v>
   <v>       0.00000000      -0.00000000       7.31048640 </v>
  </varray>
  <energy>
   <i name="e_fr_energy">   -107.97672496 </i>
   <i name="e_wo_entrp">   -107.89909600 </i>
   <i name="e_0_energy">   -107.93791048 </i>
  </energy>
  <time name="totalsc">   49.21   49.32</time>
 </calculation>
 <calculation>
  <scstep>
   <time name="dav">    1.61    1.62</time>
   <time name="total">    1.81    1.81</time>
   <energy>
    <i name="alphaZ">    547.78298255 </i>
    <i name="ewald"> 303552.96648001 </i>
    <i name="hartreedc">-350349.64464561 </i>
    <i name="XCdc">   1583.58254138 </i>
    <i name="pawpsdc">  46721.54283509 </i>
    <i name="pawaedc"> -50566.65510575 </i>
    <i name="eentropy">     -0.07776560 </i>
    <i name="bandstr">  -1635.19082532 </i>
    <i name="atom">  50037.70483787 </i>
    <i name="e_fr_energy">   -107.98866537 </i>
    <i name="e_wo_entrp">   -107.91089977 </i>
    <i name="e_0_energy">   -107.94978257 </i>
   </energy>
  </scstep>
  <scstep>
   <time name="dav">    2.09    2.09</time>
   <time name="total">    2.28    2.29</time>
   <energy>
    <i name="e_fr_energy">   -108.00178846 </i>
    <i name="e_wo_entrp">   -107.92426311 </i>
    <i name="e_0_energy">   -107.96302578 </i>
   </energy>
  </scstep>
  <scstep>
   <time name="dav">    1.64    1.64</time>
   <time name="total">    1.83    1.84</time>
   <energy>
    <i name="e_fr_energy">   -108.00156849 </i>
    <i name="e_wo_entrp">   -107.92388280 </i>
    <i name="e_0_energy">   -107.96272564 </i>
   </energy>
  </scstep>
  <scstep>
   <time name="dav">    1.66    1.67</time>
   <time name="total">    1.85    1.86</time>
   <energy>
    <i name="e_fr_energy">   -108.00143667 </i>
    <i name="e_wo_entrp">   -107.92374925 </i>
    <i name="e_0_energy">   -107.96259296 </i>
   </energy>
  </scstep>
  <scstep>
   <time name="dav">    2.58    2.59</time>
   <time name="total">    2.77    2.78</time>
   <energy>
    <i name="e_fr_energy">   -108.00108387 </i>
    <i name="e_wo_entrp">   -107.92333596 </i>
    <i name="e_0_energy">   -107.96220991 </i>
   </energy>
  </scstep>
  <scstep>
   <time name="dav">    1.76    1.76</time>
   <time name="total">    1.96    1.96</time>
   <energy>
    <i name="e_fr_energy">   -108.00102036 </i>
    <i name="e_wo_entrp">   -107.92319622 </i>
    <i name="e_0_energy">   -107.96210829 </i>
   </energy>
  </scstep>
  <scstep>
   <time name="dav">    2.02    2.02</time>
   <time name="total">    2.21    2.21</time>
   <energy>
    <i name="e_fr_energy">   -108.00095232 </i>
    <i name="e_wo_entrp">   -107.92311860 </i>
    <i name="e_0_energy">   -107.96203546 </i>
   </energy>
  </scstep>
  <scstep>
   <time name="dav">    2.07    2.07</time>
   <time name="total">    2.26    2.26</time>
   <energy>
    <i name="e_fr_energy">   -108.00096127 </i>
    <i name="e_wo_entrp">   -107.92314355 </i>
    <i name="e_0_energy">   -107.96205241 </i>
   </energy>
  </scstep>
  <scstep>
   <time name="dav">    1.54    1.54</time>
   <time name="total">    1.73    1.74</time>
   <energy>
    <i name="e_fr_energy">   -108.00096176 </i>
    <i name="e_wo_entrp">   -107.92314663 </i>
    <i name="e_0_energy">   -107.96205419 </i>
   </energy>
  </scstep>
  <scstep>
   <time name="dav">    1.03    1.03</time>
   <time name="total">    1.07    1.07</time>
   <energy>
    <i name="alphaZ">    547.78298255 </i>
    <i name="ewald"> 303552.96648001 </i>
    <i name="hartreedc">-350350.22562801 </i>
    <i name="XCdc">   1583.60771207 </i>
    <i name="pawpsdc">  46710.74498921 </i>
    <i name="pawaedc"> -50555.69965622 </i>
    <i name="eentropy">     -0.07781011 </i>
    <i name="bandstr">  -1634.80486821 </i>
    <i name="atom">  50037.70483787 </i>
    <i name="e_fr_energy">   -108.00096084 </i>
    <i name="e_wo_entrp">   -107.92315073 </i>
    <i name="e_0_energy">   -107.96205578 </i>
   </energy>
  </scstep>
  <structure>
   <crystal>
    <varray name="basis" >
     <v>       7.66857304       0.00000000       0.00000000 </v>
     <v>       0.00000000       7.66857304       0.00000000 </v>
     <v>       0.00000000       0.00000000      29.42250000 </v>
    </varray>
    <i name="volume">   1730.24932528 </i>
    <varray name="rec_basis" >
     <v>       0.13040236       0.00000000       0.00000000 </v>
     <v>       0.00000000       0.13040236       0.00000000 </v>
     <v>       0.00000000       0.00000000       0.03398759 </v>
    </varray>
   </crystal>
   <varray name="positions" >
    <v>       0.16666667       0.16666667       0.40785113 </v>
    <v>       0.50000000       0.16666667       0.40785113 </v>
    <v>       0.83333333       0.16666667       0.40785113 </v>
    <v>       0.16666667       0.50000000       0.40785113 </v>
    <v>       0.50000000       0.50000000       0.40785113 </v>
    <v>       0.83333333       0.50000000       0.40785113 </v>
    <v>       0.16666667       0.83333333       0.40785113 </v>
    <v>       0.50000000       0.83333333       0.40785113 </v>
    <v>       0.83333333       0.83333333       0.40785113 </v>
    <v>       0.00000000       0.00000000       0.46928371 </v>
    <v>       0.33333333       0.00000000       0.46928371 </v>
    <v>       0.66666667       0.00000000       0.46928371 </v>
    <v>       0.00000000       0.33333333       0.46928371 </v>
    <v>       0.33333333       0.33333333       0.46928371 </v>
    <v>       0.66666667       0.33333333       0.46928371 </v>
    <v>       0.00000000       0.66666667       0.46928371 </v>
    <v>       0.33333333       0.66666667       0.46928371 </v>
    <v>       0.66666667       0.66666667       0.46928371 </v>
    <v>       0.16666667       0.16666667       0.53106556 </v>
    <v>       0.50000000       0.16666667       0.53106556 </v>
    <v>       0.83333333       0.16666667       0.53106556 </v>
    <v>       0.16666667       0.50000000       0.53106556 </v>
    <v>       0.50000000       0.50000000       0.53106556 </v>
    <v>       0.83333333       0.50000000       0.53106556 </v>
    <v>       0.16666667       0.83333333       0.53106556 </v>
    <v>       0.50000000       0.83333333       0.53106556 </v>
    <v>       0.83333333       0.83333333       0.53106556 </v>
    <v>       1.00000000       1.00000000       0.59235562 </v>
    <v>       0.33333333       0.00000000       0.59235562 </v>
    <v>       0.66666667       0.00000000       0.59235562 </v>
    <v>       1.00000000       0.33333333       0.59235562 </v>
    <v>       0.33333333       0.33333333       0.59235562 </v>
    <v>       0.66666667       0.33333333       0.59235562 </v>
    <v>       0.00000000       0.66666667       0.59235562 </v>
    <v>       0.33333333       0.66666667       0.59235562 </v>
    <v>       0.66666667       0.66666667       0.59235562 </v>
   </varray>
  </structure>
  <varray name="forces" >
   <v>      -0.00000000      -0.00000000      -0.12229828 </v>
   <v>       0.00000000       0.00000000      -0.12229828 </v>
   <v>       0.00000000       0.00000000      -0.12229828 </v>
   <v>      -0.00000000      -0.00000000      -0.12229828 </v>
   <v>       0.00000000       0.00000000      -0.12229828 </v>
   <v>       0.00000000      -0.00000000      -0.12229828 </v>
   <v>      -0.00000000       0.00000000      -0.12229828 </v>
   <v>      -0.00000000      -0.00000000      -0.12229828 </v>
   <v>       0.00000000      -0.00000000      -0.12229828 </v>
   <v>      -0.00000000       0.00000000      -0.17166998 </v>
   <v>       0.00000000       0.00000000      -0.17166998 </v>
   <v>       0.00000000      -0.00000000      -0.17166998 </v>
   <v>       0.00000000      -0.00000000      -0.17166998 </v>
   <v>       0.00000000      -0.00000000      -0.17166998 </v>
   <v>       0.00000000       0.00000000      -0.17166998 </v>
   <v>      -0.00000000      -0.00000000      -0.17166998 </v>
   <v>      -0.00000000       0.00000000      -0.17166998 </v>
   <v>       0.00000000      -0.00000000      -0.17166998 </v>
   <v>       0.00000000       0.00000000       0.15350665 </v>
   <v>      -0.00000000      -0.00000000       0.15350665 </v>
   <v>      -0.00000000      -0.00000000       0.15350665 </v>
   <v>       0.00000000      -0.00000000       0.15350665 </v>
   <v>      -0.00000000       0.00000000       0.15350665 </v>
   <v>       0.00000000       0.00000000       0.15350665 </v>
   <v>      -0.00000000      -0.00000000       0.15350665 </v>
   <v>      -0.00000000      -0.00000000       0.15350665 </v>
   <v>      -0.00000000       0.00000000       0.15350665 </v>
   <v>       0.00000000      -0.00000000       0.14046161 </v>
   <v>      -0.00000000       0.00000000       0.14046161 </v>
   <v>      -0.00000000       0.00000000       0.14046161 </v>
   <v>       0.00000000       0.00000000       0.14046161 </v>
   <v>      -0.00000000      -0.00000000       0.14046161 </v>
   <v>       0.00000000      -0.00000000       0.14046161 </v>
   <v>      -0.00000000      -0.00000000       0.14046161 </v>
   <v>       0.00000000      -0.00000000       0.14046161 </v>
   <v>       0.00000000       0.00000000       0.14046161 </v>
  </varray>
  <varray name="stress" >
   <v>       1.03495155       0.00000000       0.00000000 </v>
   <v>       0.00000000       1.03495155       0.00000000 </v>
   <v>      -0.00000000       0.00000000       6.54737314 </v>
  </varray>
  <energy>
   <i name="e_fr_energy">   -108.00096084 </i>
   <i name="e_wo_entrp">   -107.92315073 </i>
   <i name="e_0_energy">   -107.96205578 </i>
  </energy>
  <time name="totalsc">   22.16   22.22</time>
 </calculation>
 <calculation>
  <scstep>
   <time name="dav">    1.61    1.62</time>
   <time name="total">    1.81    1.81</time>
   <energy>
    <i name="alphaZ">    547.78298255 </i>
    <i name="ewald"> 302591.16904921 </i>
    <i name="hartreedc">-349390.61744302 </i>
    <i name="XCdc">   1583.34157977 </i>
    <i name="pawpsdc">  46710.64439542 </i>
    <i name="pawaedc"> -50555.55176171 </i>
    <i name="eentropy">     -0.07830453 </i>
    <i name="bandstr">  -1632.32512060 </i>
    <i name="atom">  50037.70483787 </i>
    <i name="e_fr_energy">   -107.92978503 </i>
    <i name="e_wo_entrp">   -107.85148050 </i>
    <i name="e_0_energy">   -107.89063276 </i>
   </energy>
  </scstep>
  <scstep>
   <time name="dav">    2.08    2.09</time>
   <time name="total">    2.27    2.27</time>
   <energy>
    <i name="e_fr_energy">   -108.05572976 </i>
    <i name="e_wo_entrp">   -107.97824748 </i>
    <i name="e_0_energy">   -108.01698862 </i>
   </energy>
  </scstep>
  <scstep>
   <time name="dav">    1.59    1.59</time>
   <time name="total">    1.78    1.78</time>
   <energy>
    <i name="e_fr_energy">   -108.05208600 </i>
    <i name="e_wo_entrp">   -107.97407987 </i>
    <i name="e_0_energy">   -108.01308293 </i>
   </energy>
  </scstep>
  <scstep>
   <time name="dav">    1.78    1.79</time>
   <time name="total">    1.97    1.97</time>
   <energy>
    <i name="e_fr_energy">   -108.05094914 </i>
    <i name="e_wo_entrp">   -107.97289994 </i>
    <i name="e_0_energy">   -108.01192454 </i>
   </energy>
  </scstep>
  <scstep>
   <time name="dav">    2.27    2.27</time>
   <time name="total">    2.46    2.46</time>
   <energy>
    <i name="e_fr_energy">   -108.04772232 </i>
    <i name="e_wo_entrp">   -107.96952277 </i>
    <i name="e_0_energy">   -108.00862254 </i>
   </energy>
  </scstep>
  <scstep>
   <time name="dav">    1.75    1.76</time>
   <time name="total">    1.95    1.95</time>
   <energy>
    <i name="e_fr_energy">   -108.04700835 </i>
    <i name="e_wo_entrp">   -107.96864219 </i>
    <i name="e_0_energy">   -108.00782527 </i>
   </energy>
  </scstep>
  <scstep>
   <time name="dav">    2.40    2.41</time>
   <time name="total">    2.60    2.60</time>
   <energy>
    <i name="e_fr_energy">   -108.04649060 </i>
    <i name="e_wo_entrp">   -107.96808355 </i>
    <i name="e_0_energy">   -108.00728707 </i>
   </energy>
  </scstep>
  <scstep>
   <time name="dav">    1.96    1.96</time>
   <time name="total">    2.16    2.16</time>
   <energy>
    <i name="e_fr_energy">   -108.04658654 </i>
    <i name="e_wo_entrp">   -107.96819328 </i>
    <i name="e_0_energy">   -108.00738991 </i>
   </energy>
  </scstep>
  <scstep>
   <time name="dav">    1.65    1.66</time>
   <time name="total">    1.85    1.85</time>
   <energy>
    <i name="e_fr_energy">   -108.04657389 </i>
    <i name="e_wo_entrp">   -107.96819591 </i>
    <i name="e_0_energy">   -108.00738490 </i>
   </energy>
  </scstep>
  <scstep>
   <time name="dav">    2.27    2.27</time>
   <time name="total">    2.46    2.47</time>
   <energy>
    <i name="e_fr_energy">   -108.04655971 </i>
    <i name="e_wo_entrp">   -107.96819982 </i>
    <i name="e_0_energy">   -108.00737976 </i>
   </energy>
  </scstep>
  <scstep>
   <time name="dav">    2.30    2.30</time>
   <time name="total">    2.49    2.50</time>
   <energy>
    <i name="e_fr_energy">   -108.04656009 </i>
    <i name="e_wo_entrp">   -107.96823430 </i>
    <i name="e_0_energy">   -108.00739719 </i>
   </energy>
  </scstep>
  <scstep>
   <time name="dav">    1.62    1.62</time>
   <time name="total">    1.82    1.83</time>
   <energy>
    <i name="e_fr_energy">   -108.04655861 </i>
    <i name="e_wo_entrp">   -107.96822599 </i>
    <i name="e_0_energy">   -108.00739230 </i>
   </energy>
  </scstep>
  <scstep>
   <time name="dav">    1.51    1.51</time>
   <time name="total">    1.71    1.71</time>
   <energy>
    <i name="e_fr_energy">   -108.04655744 </i>
    <i name="e_wo_entrp">   -107.96821688 </i>
    <i name="e_0_energy">   -108.00738716 </i>
   </energy>
  </scstep>
  <scstep>
   <time name="dav">    1.14    1.15</time>
   <time name="total">    1.18    1.19</time>
   <energy>
    <i name="alphaZ">    547.78298255 </i>
    <i name="ewald"> 302591.16904921 </i>
    <i name="hartreedc">-349392.25915492 </i>
    <i name="XCdc">   1583.40108457 </i>
    <i name="pawpsdc">  46680.36847997 </i>
    <i name="pawaedc"> -50524.78523487 </i>
    <i name="eentropy">     -0.07834620 </i>
    <i name="bandstr">  -1631.35025596 </i>
    <i name="atom">  50037.70483787 </i>
    <i name="e_fr_energy">   -108.04655778 </i>
    <i name="e_wo_entrp">   -107.96821158 </i>
    <i name="e_0_energy">   -108.00738468 </i>
   </energy>
  </scstep>
  <structure>
   <crystal>
    <varray name="basis" >
     <v>       7.66857304       0.00000000       0.00000000 </v>
     <v>       0.00000000       7.66857304       0.00000000 </v>
     <v>       0.00000000       0.00000000      29.42250000 </v>
    </varray>
    <i name="volume">   1730.24932528 </i>
    <varray name="rec_basis" >
     <v>       0.13040236       0.00000000       0.00000000 </v>
     <v>       0.00000000       0.13040236       0.00000000 </v>
     <v>       0.00000000       0.00000000       0.03398759 </v>
    </varray>
   </crystal>
   <varray name="positions" >
    <v>       0.16666667       0.16666667       0.40785113 </v>
    <v>       0.50000000       0.16666667       0.40785113 </v>
    <v>       0.83333333       0.16666667       0.40785113 </v>
    <v>       0.16666667       0.50000000       0.40785113 </v>
    <v>       0.50000000       0.50000000       0.40785113 </v>
    <v>       0.83333333       0.50000000       0.40785113 </v>
    <v>       0.16666667       0.83333333       0.40785113 </v>
    <v>       0.50000000       0.83333333       0.40785113 </v>
    <v>       0.83333333       0.83333333       0.40785113 </v>
    <v>       0.00000000       0.00000000       0.46928371 </v>
    <v>       0.33333333       0.00000000       0.46928371 </v>
    <v>       0.66666667       0.00000000       0.46928371 </v>
    <v>       0.00000000       0.33333333       0.46928371 </v>
    <v>       0.33333333       0.33333333       0.46928371 </v>
    <v>       0.66666667       0.33333333       0.46928371 </v>
    <v>       0.00000000       0.66666667       0.46928371 </v>
    <v>       0.33333333       0.66666667       0.46928371 </v>
    <v>       0.66666667       0.66666667       0.46928371 </v>
    <v>       0.16666667       0.16666667       0.53211338 </v>
    <v>       0.50000000       0.16666667       0.53211338 </v>
    <v>       0.83333333       0.16666667       0.53211338 </v>
    <v>       0.16666667       0.50000000       0.53211338 </v>
    <v>       0.50000000       0.50000000       0.53211338 </v>
    <v>       0.83333333       0.50000000       0.53211338 </v>
    <v>       0.16666667       0.83333333       0.53211338 </v>
    <v>       0.50000000       0.83333333       0.53211338 </v>
    <v>       0.83333333       0.83333333       0.53211338 </v>
    <v>       0.00000000       0.00000000       0.59297590 </v>
    <v>       0.33333333       0.00000000       0.59297590 </v>
    <v>       0.66666667       0.00000000       0.59297590 </v>
    <v>       0.00000000       0.33333333       0.59297590 </v>
    <v>       0.33333333       0.33333333       0.59297590 </v>
    <v>       0.66666667       0.33333333       0.59297590 </v>
    <v>       0.00000000       0.66666667       0.59297590 </v>
    <v>       0.33333333       0.66666667       0.59297590 </v>
    <v>       0.66666667       0.66666667       0.59297590 </v>
   </varray>
  </structure>
  <varray name="forces" >
   <v>       0.00000000      -0.00000000      -0.11733694 </v>
   <v>      -0.00000000       0.00000000      -0.11733694 </v>
   <v>      -0.00000000      -0.00000000      -0.11733694 </v>
   <v>      -0.00000000      -0.00000000      -0.11733694 </v>
   <v>      -0.00000000       0.00000000      -0.11733694 </v>
   <v>      -0.00000000      -0.00000000      -0.11733694 </v>
   <v>      -0.00000000       0.00000000      -0.11733694 </v>
   <v>      -0.00000000      -0.00000000      -0.11733694 </v>
   <v>      -0.00000000      -0.00000000      -0.11733694 </v>
   <v>       0.00000000      -0.00000000      -0.05655846 </v>
   <v>       0.00000000       0.00000000      -0.05655846 </v>
   <v>      -0.00000000       0.00000000      -0.05655846 </v>
   <v>      -0.00000000       0.00000000      -0.05655846 </v>
   <v>       0.00000000       0.00000000      -0.05655846 </v>
   <v>      -0.00000000      -0.00000000      -0.05655846 </v>
   <v>      -0.00000000      -0.00000000      -0.05655846 </v>
   <v>      -0.00000000       0.00000000      -0.05655846 </v>
   <v>      -0.00000000       0.00000000      -0.05655846 </v>
   <v>       0.00000000       0.00000000      -0.01773580 </v>
   <v>       0.00000000       0.00000000      -0.01773580 </v>
   <v>      -0.00000000       0.00000000      -0.01773580 </v>
   <v>       0.00000000       0.00000000      -0.01773580 </v>
   <v>       0.00000000      -0.00000000      -0.01773580 </v>
   <v>       0.00000000       0.00000000      -0.01773580 </v>
   <v>       0.00000000      -0.00000000      -0.01773580 </v>
   <v>       0.00000000      -0.00000000      -0.01773580 </v>
   <v>       0.00000000      -0.00000000      -0.01773580 </v>
   <v>      -0.00000000       0.00000000       0.19163119 </v>
   <v>       0.00000000      -0.00000000       0.19163119 </v>
   <v>      -0.00000000       0.00000000       0.19163119 </v>
   <v>      -0.00000000       0.00000000       0.19163119 </v>
   <v>       0.00000000      -0.00000000       0.19163119 </v>
   <v>      -0.00000000      -0.00000000       0.19163119 </v>
   <v>      -0.00000000      -0.00000000       0.19163119 </v>
   <v>      -0.00000000      -0.00000000       0.19163119 </v>
   <v>      -0.00000000      -0.00000000       0.19163119 </v>
  </varray>
  <varray name="stress" >
   <v>       0.67451749       0.00000000       0.00000000 </v>
   <v>       0.00000000       0.67451749       0.00000000 </v>
   <v>       0.00000000       0.00000000       5.47989622 </v>
  </varray>
  <energy>
   <i name="e_fr_energy">   -108.04655778 </i>
   <i name="e_wo_entrp">   -107.96821158 </i>
   <i name="e_0_energy">   -108.00738468 </i>
  </energy>
  <time name="totalsc">   30.87   30.95</time>
 </calculation>
 <calculation>
  <scstep>
   <time name="dav">    1.64    1.65</time>
   <time name="total">    1.84    1.84</time>
   <energy>
    <i name="alphaZ">    547.78298255 </i>
    <i name="ewald"> 300671.93404028 </i>
    <i name="hartreedc">-347477.53798405 </i>
    <i name="XCdc">   1582.96980796 </i>
    <i name="pawpsdc">  46680.34371316 </i>
    <i name="pawaedc"> -50524.75570666 </i>
    <i name="eentropy">     -0.07988537 </i>
    <i name="bandstr">  -1625.92451286 </i>
    <i name="atom">  50037.70483787 </i>
    <i name="e_fr_energy">   -107.56270711 </i>
    <i name="e_wo_entrp">   -107.48282174 </i>
    <i name="e_0_energy">   -107.52276443 </i>
   </energy>
  </scstep>
  <scstep>
   <time name="dav">    2.07    2.08</time>
   <time name="total">    2.26    2.27</time>
   <energy>
    <i name="e_fr_energy">   -108.07292555 </i>
    <i name="e_wo_entrp">   -107.99404252 </i>
    <i name="e_0_energy">   -108.03348404 </i>
   </energy>
  </scstep>
  <scstep>
   <time name="dav">    1.61    1.61</time>
   <time name="total">    1.79    1.80</time>
   <energy>
    <i name="e_fr_energy">   -108.04901141 </i>
    <i name="e_wo_entrp">   -107.96954506 </i>
    <i name="e_0_energy">   -108.00927824 </i>
   </energy>
  </scstep>
  <scstep>
   <time name="dav">    1.71    1.71</time>
   <time name="total">    1.90    1.90</time>
   <energy>
    <i name="e_fr_energy">   -108.04646957 </i>
    <i name="e_wo_entrp">   -107.96695583 </i>
    <i name="e_0_energy">   -108.00671270 </i>
   </energy>
  </scstep>
  <scstep>
   <time name="dav">    2.01    2.01</time>
   <time name="total">    2.20    2.20</time>
   <energy>
    <i name="e_fr_energy">   -108.03533309 </i>
    <i name="e_wo_entrp">   -107.95579245 </i>
    <i name="e_0_energy">   -107.99556277 </i>
   </energy>
  </scstep>
  <scstep>
   <time name="dav">    2.23    2.23</time>
   <time name="total">    2.42    2.42</time>
   <energy>
    <i name="e_fr_energy">   -108.03136273 </i>
    <i name="e_wo_entrp">   -107.95170801 </i>
    <i name="e_0_energy">   -107.99153537 </i>
   </energy>
  </scstep>
  <scstep>
   <time name="dav">    2.34    2.34</time>
   <time name="total">    2.53    2.54</time>
   <energy>
    <i name="e_fr_energy">   -108.02992798 </i>
    <i name="e_wo_entrp">   -107.95024455 </i>
    <i name="e_0_energy">   -107.99008626 </i>
   </energy>
  </scstep>
  <scstep>
   <time name="dav">    1.96    1.96</time>
   <time name="total">    2.15    2.15</time>
   <energy>
    <i name="e_fr_energy">   -108.03012453 </i>
    <i name="e_wo_entrp">   -107.95041277 </i>
    <i name="e_0_energy">   -107.99026865 </i>
   </energy>
  </scstep>
  <scstep>
   <time name="dav">    1.59    1.59</time>
   <time name="total">    1.78    1.79</time>
   <energy>
    <i name="e_fr_energy">   -108.03007481 </i>
    <i name="e_wo_entrp">   -107.95038871 </i>
    <i name="e_0_energy">   -107.99023176 </i>
   </energy>
  </scstep>
  <scstep>
   <time name="dav">    1.95    1.95</time>
   <time name="total">    2.15    2.15</time>
   <energy>
    <i name="e_fr_energy">   -108.03005599 </i>
    <i name="e_wo_entrp">   -107.95038289 </i>
    <i name="e_0_energy">   -107.99021944 </i>
   </energy>
  </scstep>
  <scstep>
   <time name="dav">    2.49    2.50</time>
   <time name="total">    2.69    2.70</time>
   <energy>
    <i name="e_fr_energy">   -108.03007073 </i>
    <i name="e_wo_entrp">   -107.95040890 </i>
    <i name="e_0_energy">   -107.99023981 </i>
   </energy>
  </scstep>
  <scstep>
   <time name="dav">    1.79    1.80</time>
   <time name="total">    1.99    2.00</time>
   <energy>
    <i name="e_fr_energy">   -108.03004844 </i>
    <i name="e_wo_entrp">   -107.95037085 </i>
    <i name="e_0_energy">   -107.99020964 </i>
   </energy>
  </scstep>
  <scstep>
   <time name="dav">    2.04    2.05</time>
   <time name="total">    2.24    2.25</time>
   <energy>
    <i name="e_fr_energy">   -108.03005424 </i>
    <i name="e_wo_entrp">   -107.95037434 </i>
    <i name="e_0_energy">   -107.99021429 </i>
   </energy>
  </scstep>
  <scstep>
   <time name="dav">    1.57    1.57</time>
   <time name="total">    1.77    1.77</time>
   <energy>
    <i name="e_fr_energy">   -108.03005642 </i>
    <i name="e_wo_entrp">   -107.95038058 </i>
    <i name="e_0_energy">   -107.99021850 </i>
   </energy>
  </scstep>
  <scstep>
   <time name="dav">    1.09    1.09</time>
   <time name="total">    1.29    1.30</time>
   <energy>
    <i name="e_fr_energy">   -108.03005998 </i>
    <i name="e_wo_entrp">   -107.95038362 </i>
    <i name="e_0_energy">   -107.99022180 </i>
   </energy>
  </scstep>
  <scstep>
   <time name="dav">    1.11    1.11</time>
   <time name="total">    1.31    1.32</time>
   <energy>
    <i name="e_fr_energy">   -108.03006428 </i>
    <i name="e_wo_entrp">   -107.95038803 </i>
    <i name="e_0_energy">   -107.99022615 </i>
   </energy>
  </scstep>
  <scstep>
   <time name="dav">    1.12    1.13</time>
   <time name="total">    1.32    1.33</time>
   <energy>
    <i name="e_fr_energy">   -108.03006951 </i>
    <i name="e_wo_entrp">   -107.95039417 </i>
    <i name="e_0_energy">   -107.99023184 </i>
   </energy>
  </scstep>
  <scstep>
   <time name="dav">    1.12    1.13</time>
   <time name="total">    1.16    1.17</time>
   <energy>
    <i name="alphaZ">    547.78298255 </i>
    <i name="ewald"> 300671.93404028 </i>
    <i name="hartreedc">-347479.80267162 </i>
    <i name="XCdc">   1583.03240421 </i>
    <i name="pawpsdc">  46630.66048922 </i>
    <i name="pawaedc"> -50474.26864103 </i>
    <i name="eentropy">     -0.07967556 </i>
    <i name="bandstr">  -1624.99383594 </i>
    <i name="atom">  50037.70483787 </i>
    <i name="e_fr_energy">   -108.03007002 </i>
    <i name="e_wo_entrp">   -107.95039447 </i>
    <i name="e_0_energy">   -107.99023225 </i>
   </energy>
  </scstep>
  <structure>
   <crystal>
    <varray name="basis" >
     <v>       7.66857304       0.00000000       0.00000000 </v>
     <v>       0.00000000       7.66857304       0.00000000 </v>
     <v>       0.00000000       0.00000000      29.42250000 </v>
    </varray>
    <i name="volume">   1730.24932528 </i>
    <varray name="rec_basis" >
     <v>       0.13040236       0.00000000       0.00000000 </v>
     <v>       0.00000000       0.13040236       0.00000000 </v>
     <v>       0.00000000       0.00000000       0.03398759 </v>
    </varray>
   </crystal>
   <varray name="positions" >
    <v>       0.16666667       0.16666667       0.40785113 </v>
    <v>       0.50000000       0.16666667       0.40785113 </v>
    <v>       0.83333333       0.16666667       0.40785113 </v>
    <v>       0.16666667       0.50000000       0.40785113 </v>
    <v>       0.50000000       0.50000000       0.40785113 </v>
    <v>       0.83333333       0.50000000       0.40785113 </v>
    <v>       0.16666667       0.83333333       0.40785113 </v>
    <v>       0.50000000       0.83333333       0.40785113 </v>
    <v>       0.83333333       0.83333333       0.40785113 </v>
    <v>       0.00000000       0.00000000       0.46928371 </v>
    <v>       0.33333333       0.00000000       0.46928371 </v>
    <v>       0.66666667       0.00000000       0.46928371 </v>
    <v>       0.00000000       0.33333333       0.46928371 </v>
    <v>       0.33333333       0.33333333       0.46928371 </v>
    <v>       0.66666667       0.33333333       0.46928371 </v>
    <v>       0.00000000       0.66666667       0.46928371 </v>
    <v>       0.33333333       0.66666667       0.46928371 </v>
    <v>       0.66666667       0.66666667       0.46928371 </v>
    <v>       0.16666667       0.16666667       0.53420902 </v>
    <v>       0.50000000       0.16666667       0.53420902 </v>
    <v>       0.83333333       0.16666667       0.53420902 </v>
    <v>       0.16666667       0.50000000       0.53420902 </v>
    <v>       0.50000000       0.50000000       0.53420902 </v>
    <v>       0.83333333       0.50000000       0.53420902 </v>
    <v>       0.16666667       0.83333333       0.53420902 </v>
    <v>       0.50000000       0.83333333       0.53420902 </v>
    <v>       0.83333333       0.83333333       0.53420902 </v>
    <v>       1.00000000       1.00000000       0.59421645 </v>
    <v>       0.33333333       0.00000000       0.59421645 </v>
    <v>       0.66666667       0.00000000       0.59421645 </v>
    <v>       1.00000000       0.33333333       0.59421645 </v>
    <v>       0.33333333       0.33333333       0.59421645 </v>
    <v>       0.66666667       0.33333333       0.59421645 </v>
    <v>       0.00000000       0.66666667       0.59421645 </v>
    <v>       0.33333333       0.66666667       0.59421645 </v>
    <v>       0.66666667       0.66666667       0.59421645 </v>
   </varray>
  </structure>
  <varray name="forces" >
   <v>       0.00000000       0.00000000      -0.11328944 </v>
   <v>      -0.00000000       0.00000000      -0.11328944 </v>
   <v>       0.00000000       0.00000000      -0.11328944 </v>
   <v>      -0.00000000       0.00000000      -0.11328944 </v>
   <v>      -0.00000000      -0.00000000      -0.11328944 </v>
   <v>       0.00000000       0.00000000      -0.11328944 </v>
   <v>       0.00000000       0.00000000      -0.11328944 </v>
   <v>      -0.00000000       0.00000000      -0.11328944 </v>
   <v>       0.00000000       0.00000000      -0.11328944 </v>
   <v>       0.00000000      -0.00000000       0.14869916 </v>
   <v>       0.00000000      -0.00000000       0.14869916 </v>
   <v>       0.00000000       0.00000000       0.14869916 </v>
   <v>       0.00000000       0.00000000       0.14869916 </v>
   <v>      -0.00000000       0.00000000       0.14869916 </v>
   <v>       0.00000000       0.00000000       0.14869916 </v>
   <v>      -0.00000000       0.00000000       0.14869916 </v>
   <v>      -0.00000000       0.00000000       0.14869916 </v>
   <v>      -0.00000000      -0.00000000       0.14869916 </v>
   <v>      -0.00000000      -0.00000000      -0.31404470 </v>
   <v>       0.00000000       0.00000000      -0.31404470 </v>
   <v>      -0.00000000       0.00000000      -0.31404470 </v>
   <v>       0.00000000       0.00000000      -0.31404470 </v>
   <v>      -0.00000000      -0.00000000      -0.31404470 </v>
   <v>       0.00000000      -0.00000000      -0.31404470 </v>
   <v>       0.00000000      -0.00000000      -0.31404470 </v>
   <v>       0.00000000      -0.00000000      -0.31404470 </v>
   <v>       0.00000000       0.00000000      -0.31404470 </v>
   <v>      -0.00000000      -0.00000000       0.27863498 </v>
   <v>      -0.00000000       0.00000000       0.27863498 </v>
   <v>      -0.00000000      -0.00000000       0.27863498 </v>
   <v>      -0.00000000      -0.00000000       0.27863498 </v>
   <v>      -0.00000000      -0.00000000       0.27863498 </v>
   <v>       0.00000000       0.00000000       0.27863498 </v>
   <v>      -0.00000000      -0.00000000       0.27863498 </v>
   <v>      -0.00000000      -0.00000000       0.27863498 </v>
   <v>       0.00000000      -0.00000000       0.27863498 </v>
  </varray>
  <varray name="stress" >
   <v>      -0.22974119       0.00000000       0.00000000 </v>
   <v>       0.00000000      -0.22974119      -0.00000000 </v>
   <v>       0.00000000      -0.00000000       3.15832348 </v>
  </varray>
  <energy>
   <i name="e_fr_energy">   -108.03007002 </i>
   <i name="e_wo_entrp">   -107.95039447 </i>
   <i name="e_0_energy">   -107.99023225 </i>
  </energy>
  <time name="totalsc">   37.19   37.27</time>
 </calculation>
 <calculation>
  <scstep>
   <time name="dav">    1.61    1.61</time>
   <time name="total">    1.80    1.80</time>
   <energy>
    <i name="alphaZ">    547.78298255 </i>
    <i name="ewald"> 301840.15714173 </i>
    <i name="hartreedc">-348647.08056189 </i>
    <i name="XCdc">   1583.37500131 </i>
    <i name="pawpsdc">  46630.66032560 </i>
    <i name="pawaedc"> -50474.27459303 </i>
    <i name="eentropy">     -0.07886566 </i>
    <i name="bandstr">  -1626.12350833 </i>
    <i name="atom">  50037.70483787 </i>
    <i name="e_fr_energy">   -107.87723986 </i>
    <i name="e_wo_entrp">   -107.79837420 </i>
    <i name="e_0_energy">   -107.83780703 </i>
   </energy>
  </scstep>
  <scstep>
   <time name="dav">    2.13    2.14</time>
   <time name="total">    2.33    2.33</time>
   <energy>
    <i name="e_fr_energy">   -108.07290220 </i>
    <i name="e_wo_entrp">   -107.99395556 </i>
    <i name="e_0_energy">   -108.03342888 </i>
   </energy>
  </scstep>
  <scstep>
   <time name="dav">    1.66    1.66</time>
   <time name="total">    1.85    1.85</time>
   <energy>
    <i name="e_fr_energy">   -108.06278101 </i>
    <i name="e_wo_entrp">   -107.98387837 </i>
    <i name="e_0_energy">   -108.02332969 </i>
   </energy>
  </scstep>
  <scstep>
   <time name="dav">    1.69    1.70</time>
   <time name="total">    1.88    1.89</time>
   <energy>
    <i name="e_fr_energy">   -108.06250866 </i>
    <i name="e_wo_entrp">   -107.98360799 </i>
    <i name="e_0_energy">   -108.02305832 </i>
   </energy>
  </scstep>
  <scstep>
   <time name="dav">    1.75    1.76</time>
   <time name="total">    1.95    1.95</time>
   <energy>
    <i name="e_fr_energy">   -108.05842494 </i>
    <i name="e_wo_entrp">   -107.97955657 </i>
    <i name="e_0_energy">   -108.01899076 </i>
   </energy>
  </scstep>
  <scstep>
   <time name="dav">    2.15    2.15</time>
   <time name="total">    2.34    2.34</time>
   <energy>
    <i name="e_fr_energy">   -108.05666992 </i>
    <i name="e_wo_entrp">   -107.97789614 </i>
    <i name="e_0_energy">   -108.01728303 </i>
   </energy>
  </scstep>
  <scstep>
   <time name="dav">    2.22    2.22</time>
   <time name="total">    2.41    2.41</time>
   <energy>
    <i name="e_fr_energy">   -108.05677993 </i>
    <i name="e_wo_entrp">   -107.97797601 </i>
    <i name="e_0_energy">   -108.01737797 </i>
   </energy>
  </scstep>
  <scstep>
   <time name="dav">    1.61    1.61</time>
   <time name="total">    1.80    1.81</time>
   <energy>
    <i name="e_fr_energy">   -108.05664992 </i>
    <i name="e_wo_entrp">   -107.97784665 </i>
    <i name="e_0_energy">   -108.01724829 </i>
   </energy>
  </scstep>
  <scstep>
   <time name="dav">    1.91    1.91</time>
   <time name="total">    2.10    2.11</time>
   <energy>
    <i name="e_fr_energy">   -108.05666137 </i>
    <i name="e_wo_entrp">   -107.97784885 </i>
    <i name="e_0_energy">   -108.01725511 </i>
   </energy>
  </scstep>
  <scstep>
   <time name="dav">    1.65    1.66</time>
   <time name="total">    1.85    1.85</time>
   <energy>
    <i name="e_fr_energy">   -108.05666289 </i>
    <i name="e_wo_entrp">   -107.97785133 </i>
    <i name="e_0_energy">   -108.01725711 </i>
   </energy>
  </scstep>
  <scstep>
   <time name="dav">    1.78    1.78</time>
   <time name="total">    1.98    1.98</time>
   <energy>
    <i name="e_fr_energy">   -108.05666577 </i>
    <i name="e_wo_entrp">   -107.97784984 </i>
    <i name="e_0_energy">   -108.01725781 </i>
   </energy>
  </scstep>
  <scstep>
   <time name="dav">    1.25    1.25</time>
   <time name="total">    1.44    1.45</time>
   <energy>
    <i name="e_fr_energy">   -108.05666700 </i>
    <i name="e_wo_entrp">   -107.97785447 </i>
    <i name="e_0_energy">   -108.01726074 </i>
   </energy>
  </scstep>
  <scstep>
   <time name="dav">    1.11    1.11</time>
   <time name="total">    1.31    1.31</time>
   <energy>
    <i name="e_fr_energy">   -108.05666931 </i>
    <i name="e_wo_entrp">   -107.97785638 </i>
    <i name="e_0_energy">   -108.01726285 </i>
   </energy>
  </scstep>
  <scstep>
   <time name="dav">    1.10    1.10</time>
   <time name="total">    1.30    1.30</time>
   <energy>
    <i name="e_fr_energy">   -108.05667175 </i>
    <i name="e_wo_entrp">   -107.97785780 </i>
    <i name="e_0_energy">   -108.01726478 </i>
   </energy>
  </scstep>
  <scstep>
   <time name="dav">    1.13    1.13</time>
   <time name="total">    1.33    1.33</time>
   <energy>
    <i name="e_fr_energy">   -108.05667326 </i>
    <i name="e_wo_entrp">   -107.97785976 </i>
    <i name="e_0_energy">   -108.01726651 </i>
   </energy>
  </scstep>
  <scstep>
   <time name="dav">    1.11    1.11</time>
   <time name="total">    1.31    1.31</time>
   <energy>
    <i name="e_fr_energy">   -108.05667567 </i>
    <i name="e_wo_entrp">   -107.97786257 </i>
    <i name="e_0_energy">   -108.01726912 </i>
   </energy>
  </scstep>
  <scstep>
   <time name="dav">    1.10    1.10</time>
   <time name="total">    1.30    1.30</time>
   <energy>
    <i name="e_fr_energy">   -108.05667675 </i>
    <i name="e_wo_entrp">   -107.97786322 </i>
    <i name="e_0_energy">   -108.01726999 </i>
   </energy>
  </scstep>
  <scstep>
   <time name="dav">    1.09    1.09</time>
   <time name="total">    1.13    1.13</time>
   <energy>
    <i name="alphaZ">    547.78298255 </i>
    <i name="ewald"> 301840.15714173 </i>
    <i name="hartreedc">-348643.99284402 </i>
    <i name="XCdc">   1583.25007319 </i>
    <i name="pawpsdc">  46659.21845300 </i>
    <i name="pawaedc"> -50503.29389532 </i>
    <i name="eentropy">     -0.07881357 </i>
    <i name="bandstr">  -1628.80461271 </i>
    <i name="atom">  50037.70483787 </i>
    <i name="e_fr_energy">   -108.05667728 </i>
    <i name="e_wo_entrp">   -107.97786372 </i>
    <i name="e_0_energy">   -108.01727050 </i>
   </energy>
  </scstep>
  <structure>
   <crystal>
    <varray name="basis" >
     <v>       7.66857304       0.00000000       0.00000000 </v>
     <v>       0.00000000       7.66857304       0.00000000 </v>
     <v>       0.00000000       0.00000000      29.42250000 </v>
    </varray>
    <i name="volume">   1730.24932528 </i>
    <varray name="rec_basis" >
     <v>       0.13040236       0.00000000       0.00000000 </v>
     <v>       0.00000000       0.13040236       0.00000000 </v>
     <v>       0.00000000       0.00000000       0.03398759 </v>
    </varray>
   </crystal>
   <varray name="positions" >
    <v>       0.16666667       0.16666667       0.40785113 </v>
    <v>       0.50000000       0.16666667       0.40785113 </v>
    <v>       0.83333333       0.16666667       0.40785113 </v>
    <v>       0.16666667       0.50000000       0.40785113 </v>
    <v>       0.50000000       0.50000000       0.40785113 </v>
    <v>       0.83333333       0.50000000       0.40785113 </v>
    <v>       0.16666667       0.83333333       0.40785113 </v>
    <v>       0.50000000       0.83333333       0.40785113 </v>
    <v>       0.83333333       0.83333333       0.40785113 </v>
    <v>       0.00000000       0.00000000       0.46928371 </v>
    <v>       0.33333333       0.00000000       0.46928371 </v>
    <v>       0.66666667       0.00000000       0.46928371 </v>
    <v>       0.00000000       0.33333333       0.46928371 </v>
    <v>       0.33333333       0.33333333       0.46928371 </v>
    <v>       0.66666667       0.33333333       0.46928371 </v>
    <v>       0.00000000       0.66666667       0.46928371 </v>
    <v>       0.33333333       0.66666667       0.46928371 </v>
    <v>       0.66666667       0.66666667       0.46928371 </v>
    <v>       0.16666667       0.16666667       0.53293265 </v>
    <v>       0.50000000       0.16666667       0.53293265 </v>
    <v>       0.83333333       0.16666667       0.53293265 </v>
    <v>       0.16666667       0.50000000       0.53293265 </v>
    <v>       0.50000000       0.50000000       0.53293265 </v>
    <v>       0.83333333       0.50000000       0.53293265 </v>
    <v>       0.16666667       0.83333333       0.53293265 </v>
    <v>       0.50000000       0.83333333       0.53293265 </v>
    <v>       0.83333333       0.83333333       0.53293265 </v>
    <v>       0.00000000       0.00000000       0.59346088 </v>
    <v>       0.33333333       0.00000000       0.59346088 </v>
    <v>       0.66666667       0.00000000       0.59346088 </v>
    <v>       0.00000000       0.33333333       0.59346088 </v>
    <v>       0.33333333       0.33333333       0.59346088 </v>
    <v>       0.66666667       0.33333333       0.59346088 </v>
    <v>       0.00000000       0.66666667       0.59346088 </v>
    <v>       0.33333333       0.66666667       0.59346088 </v>
    <v>       0.66666667       0.66666667       0.59346088 </v>
   </varray>
  </structure>
  <varray name="forces" >
   <v>      -0.00000000      -0.00000000      -0.11784687 </v>
   <v>       0.00000000       0.00000000      -0.11784687 </v>
   <v>       0.00000000       0.00000000      -0.11784687 </v>
   <v>      -0.00000000       0.00000000      -0.11784687 </v>
   <v>       0.00000000       0.00000000      -0.11784687 </v>
   <v>       0.00000000       0.00000000      -0.11784687 </v>
   <v>      -0.00000000       0.00000000      -0.11784687 </v>
   <v>      -0.00000000      -0.00000000      -0.11784687 </v>
   <v>       0.00000000       0.00000000      -0.11784687 </v>
   <v>      -0.00000000      -0.00000000       0.02738848 </v>
   <v>       0.00000000       0.00000000       0.02738848 </v>
   <v>      -0.00000000       0.00000000       0.02738848 </v>
   <v>      -0.00000000      -0.00000000       0.02738848 </v>
   <v>      -0.00000000      -0.00000000       0.02738848 </v>
   <v>      -0.00000000      -0.00000000       0.02738848 </v>
   <v>       0.00000000       0.00000000       0.02738848 </v>
   <v>      -0.00000000      -0.00000000       0.02738848 </v>
   <v>      -0.00000000      -0.00000000       0.02738848 </v>
   <v>       0.00000000       0.00000000      -0.13536873 </v>
   <v>       0.00000000       0.00000000      -0.13536873 </v>
   <v>      -0.00000000       0.00000000      -0.13536873 </v>
   <v>       0.00000000       0.00000000      -0.13536873 </v>
   <v>      -0.00000000       0.00000000      -0.13536873 </v>
   <v>       0.00000000      -0.00000000      -0.13536873 </v>
   <v>      -0.00000000       0.00000000      -0.13536873 </v>
   <v>       0.00000000       0.00000000      -0.13536873 </v>
   <v>       0.00000000       0.00000000      -0.13536873 </v>
   <v>      -0.00000000      -0.00000000       0.22582712 </v>
   <v>       0.00000000       0.00000000       0.22582712 </v>
   <v>       0.00000000      -0.00000000       0.22582712 </v>
   <v>      -0.00000000       0.00000000       0.22582712 </v>
   <v>       0.00000000      -0.00000000       0.22582712 </v>
[...]
        <r>  0.0018  0.0000  0.0004  0.0000  0.0000  0.0000  0.0013  0.0000  0.0000 </r>
        <r>  0.0015  0.0001  0.0000  0.0001  0.0000  0.0000  0.0012  0.0000  0.0000 </r>
        <r>  0.0004  0.0002  0.0000  0.0002  0.0000  0.0000  0.0003  0.0000  0.0000 </r>
        <r>  0.0004  0.0002  0.0000  0.0002  0.0000  0.0000  0.0003  0.0000  0.0000 </r>
        <r>  0.0004  0.0002  0.0000  0.0002  0.0000  0.0000  0.0003  0.0000  0.0000 </r>
        <r>  0.0015  0.0001  0.0000  0.0001  0.0000  0.0000  0.0012  0.0000  0.0000 </r>
        <r>  0.0004  0.0002  0.0000  0.0002  0.0000  0.0000  0.0003  0.0000  0.0000 </r>
        <r>  0.0004  0.0002  0.0000  0.0002  0.0000  0.0000  0.0003  0.0000  0.0000 </r>
        <r>  0.0004  0.0002  0.0000  0.0002  0.0000  0.0000  0.0003  0.0000  0.0000 </r>
        <r>  0.0015  0.0001  0.0000  0.0001  0.0000  0.0000  0.0012  0.0000  0.0000 </r>
        <r>  0.0016  0.0001  0.0000  0.0001  0.0000  0.0000  0.0012  0.0000  0.0000 </r>
        <r>  0.0004  0.0002  0.0000  0.0002  0.0000  0.0000  0.0003  0.0000  0.0000 </r>
        <r>  0.0004  0.0002  0.0000  0.0002  0.0000  0.0000  0.0003  0.0000  0.0000 </r>
        <r>  0.0004  0.0002  0.0000  0.0002  0.0000  0.0000  0.0003  0.0000  0.0000 </r>
        <r>  0.0016  0.0001  0.0000  0.0001  0.0000  0.0000  0.0012  0.0000  0.0000 </r>
        <r>  0.0004  0.0002  0.0000  0.0002  0.0000  0.0000  0.0003  0.0000  0.0000 </r>
        <r>  0.0004  0.0002  0.0000  0.0002  0.0000  0.0000  0.0003  0.0000  0.0000 </r>
        <r>  0.0004  0.0002  0.0000  0.0002  0.0000  0.0000  0.0003  0.0000  0.0000 </r>
        <r>  0.0016  0.0001  0.0000  0.0001  0.0000  0.0000  0.0012  0.0000  0.0000 </r>
        <r>  0.0019  0.0000  0.0004  0.0000  0.0000  0.0000  0.0014  0.0000  0.0000 </r>
        <r>  0.0005  0.0002  0.0001  0.0002  0.0000  0.0000  0.0003  0.0000  0.0000 </r>
        <r>  0.0005  0.0002  0.0001  0.0002  0.0000  0.0000  0.0003  0.0000  0.0000 </r>
        <r>  0.0005  0.0002  0.0001  0.0002  0.0000  0.0000  0.0003  0.0000  0.0000 </r>
        <r>  0.0019  0.0000  0.0004  0.0000  0.0000  0.0000  0.0014  0.0000  0.0000 </r>
        <r>  0.0005  0.0002  0.0001  0.0002  0.0000  0.0000  0.0003  0.0000  0.0000 </r>
        <r>  0.0005  0.0002  0.0001  0.0002  0.0000  0.0000  0.0003  0.0000  0.0000 </r>
        <r>  0.0005  0.0002  0.0001  0.0002  0.0000  0.0000  0.0003  0.0000  0.0000 </r>
        <r>  0.0019  0.0000  0.0004  0.0000  0.0000  0.0000  0.0014  0.0000  0.0000 </r>
       </set>
       <set comment="band 234">
        <r>  0.0003  0.0014  0.0002  0.0035  0.0000  0.0005  0.0000  0.0024  0.0014 </r>
        <r>  0.0024  0.0007  0.0019  0.0028  0.0002  0.0010  0.0001  0.0029  0.0004 </r>
        <r>  0.0020  0.0008  0.0016  0.0029  0.0002  0.0010  0.0001  0.0028  0.0005 </r>
        <r>  0.0020  0.0008  0.0016  0.0029  0.0002  0.0010  0.0001  0.0028  0.0005 </r>
        <r>  0.0003  0.0014  0.0002  0.0035  0.0000  0.0005  0.0000  0.0024  0.0014 </r>
        <r>  0.0024  0.0007  0.0019  0.0028  0.0002  0.0010  0.0001  0.0029  0.0004 </r>
        <r>  0.0024  0.0007  0.0019  0.0028  0.0002  0.0010  0.0001  0.0029  0.0004 </r>
        <r>  0.0020  0.0008  0.0016  0.0029  0.0002  0.0010  0.0001  0.0028  0.0005 </r>
        <r>  0.0003  0.0014  0.0002  0.0035  0.0000  0.0005  0.0000  0.0024  0.0014 </r>
        <r>  0.0021  0.0003  0.0001  0.0001  0.0000  0.0016  0.0001  0.0044  0.0044 </r>
        <r>  0.0188  0.0004  0.0009  0.0002  0.0000  0.0010  0.0005  0.0039  0.0011 </r>
        <r>  0.0161  0.0004  0.0007  0.0001  0.0000  0.0011  0.0004  0.0040  0.0017 </r>
        <r>  0.0161  0.0004  0.0007  0.0001  0.0000  0.0011  0.0004  0.0040  0.0017 </r>
        <r>  0.0021  0.0003  0.0001  0.0001  0.0000  0.0016  0.0001  0.0044  0.0044 </r>
        <r>  0.0188  0.0004  0.0009  0.0002  0.0000  0.0010  0.0005  0.0039  0.0011 </r>
        <r>  0.0188  0.0004  0.0009  0.0002  0.0000  0.0010  0.0005  0.0039  0.0011 </r>
        <r>  0.0161  0.0004  0.0007  0.0001  0.0000  0.0011  0.0004  0.0040  0.0017 </r>
        <r>  0.0021  0.0003  0.0001  0.0001  0.0000  0.0016  0.0001  0.0044  0.0044 </r>
        <r>  0.0021  0.0003  0.0001  0.0001  0.0000  0.0016  0.0001  0.0045  0.0046 </r>
        <r>  0.0196  0.0004  0.0007  0.0001  0.0000  0.0011  0.0005  0.0040  0.0012 </r>
        <r>  0.0167  0.0004  0.0006  0.0001  0.0000  0.0012  0.0004  0.0041  0.0017 </r>
        <r>  0.0167  0.0004  0.0006  0.0001  0.0000  0.0012  0.0004  0.0041  0.0017 </r>
        <r>  0.0021  0.0003  0.0001  0.0001  0.0000  0.0016  0.0001  0.0045  0.0046 </r>
        <r>  0.0196  0.0004  0.0007  0.0001  0.0000  0.0011  0.0005  0.0040  0.0012 </r>
        <r>  0.0196  0.0004  0.0007  0.0001  0.0000  0.0011  0.0005  0.0040  0.0012 </r>
        <r>  0.0167  0.0004  0.0006  0.0001  0.0000  0.0012  0.0004  0.0041  0.0017 </r>
        <r>  0.0021  0.0003  0.0001  0.0001  0.0000  0.0016  0.0001  0.0045  0.0046 </r>
        <r>  0.0003  0.0015  0.0002  0.0037  0.0000  0.0006  0.0000  0.0025  0.0014 </r>
        <r>  0.0025  0.0007  0.0019  0.0030  0.0002  0.0011  0.0001  0.0030  0.0004 </r>
        <r>  0.0021  0.0009  0.0017  0.0031  0.0002  0.0010  0.0001  0.0029  0.0006 </r>
        <r>  0.0021  0.0009  0.0017  0.0031  0.0002  0.0010  0.0001  0.0029  0.0006 </r>
        <r>  0.0003  0.0015  0.0002  0.0037  0.0000  0.0006  0.0000  0.0025  0.0014 </r>
        <r>  0.0025  0.0007  0.0019  0.0030  0.0002  0.0011  0.0001  0.0030  0.0004 </r>
        <r>  0.0025  0.0007  0.0019  0.0030  0.0002  0.0011  0.0001  0.0030  0.0004 </r>
        <r>  0.0021  0.0009  0.0017  0.0031  0.0002  0.0010  0.0001  0.0029  0.0006 </r>
        <r>  0.0003  0.0015  0.0002  0.0037  0.0000  0.0006  0.0000  0.0025  0.0014 </r>
       </set>
       <set comment="band 235">
        <r>  0.0006  0.0000  0.0001  0.0000  0.0000  0.0000  0.0005  0.0000  0.0000 </r>
        <r>  0.0006  0.0000  0.0001  0.0000  0.0000  0.0000  0.0005  0.0000  0.0000 </r>
        <r>  0.0006  0.0000  0.0001  0.0000  0.0000  0.0000  0.0005  0.0000  0.0000 </r>
        <r>  0.0006  0.0000  0.0001  0.0000  0.0000  0.0000  0.0005  0.0000  0.0000 </r>
        <r>  0.0006  0.0000  0.0001  0.0000  0.0000  0.0000  0.0005  0.0000  0.0000 </r>
        <r>  0.0006  0.0000  0.0001  0.0000  0.0000  0.0000  0.0005  0.0000  0.0000 </r>
        <r>  0.0006  0.0000  0.0001  0.0000  0.0000  0.0000  0.0005  0.0000  0.0000 </r>
        <r>  0.0006  0.0000  0.0001  0.0000  0.0000  0.0000  0.0005  0.0000  0.0000 </r>
        <r>  0.0006  0.0000  0.0001  0.0000  0.0000  0.0000  0.0005  0.0000  0.0000 </r>
        <r>  0.0006  0.0000  0.0000  0.0000  0.0000  0.0000  0.0004  0.0000  0.0000 </r>
        <r>  0.0006  0.0000  0.0000  0.0000  0.0000  0.0000  0.0004  0.0000  0.0000 </r>
        <r>  0.0005  0.0000  0.0000  0.0000  0.0000  0.0000  0.0004  0.0000  0.0000 </r>
        <r>  0.0006  0.0000  0.0000  0.0000  0.0000  0.0000  0.0004  0.0000  0.0000 </r>
        <r>  0.0006  0.0000  0.0000  0.0000  0.0000  0.0000  0.0004  0.0000  0.0000 </r>
        <r>  0.0006  0.0000  0.0000  0.0000  0.0000  0.0000  0.0004  0.0000  0.0000 </r>
        <r>  0.0005  0.0000  0.0000  0.0000  0.0000  0.0000  0.0004  0.0000  0.0000 </r>
        <r>  0.0005  0.0000  0.0000  0.0000  0.0000  0.0000  0.0004  0.0000  0.0000 </r>
        <r>  0.0005  0.0000  0.0000  0.0000  0.0000  0.0000  0.0004  0.0000  0.0000 </r>
        <r>  0.0006  0.0000  0.0000  0.0000  0.0000  0.0000  0.0004  0.0000  0.0000 </r>
        <r>  0.0006  0.0000  0.0000  0.0000  0.0000  0.0000  0.0004  0.0000  0.0000 </r>
        <r>  0.0006  0.0000  0.0000  0.0000  0.0000  0.0000  0.0004  0.0000  0.0000 </r>
        <r>  0.0006  0.0000  0.0000  0.0000  0.0000  0.0000  0.0004  0.0000  0.0000 </r>
        <r>  0.0006  0.0000  0.0000  0.0000  0.0000  0.0000  0.0004  0.0000  0.0000 </r>
        <r>  0.0006  0.0000  0.0000  0.0000  0.0000  0.0000  0.0004  0.0000  0.0000 </r>
        <r>  0.0006  0.0000  0.0000  0.0000  0.0000  0.0000  0.0004  0.0000  0.0000 </r>
        <r>  0.0006  0.0000  0.0000  0.0000  0.0000  0.0000  0.0004  0.0000  0.0000 </r>
        <r>  0.0006  0.0000  0.0000  0.0000  0.0000  0.0000  0.0004  0.0000  0.0000 </r>
        <r>  0.0007  0.0000  0.0001  0.0000  0.0000  0.0000  0.0005  0.0000  0.0000 </r>
        <r>  0.0006  0.0000  0.0001  0.0000  0.0000  0.0000  0.0005  0.0000  0.0000 </r>
        <r>  0.0007  0.0000  0.0001  0.0000  0.0000  0.0000  0.0005  0.0000  0.0000 </r>
        <r>  0.0006  0.0000  0.0001  0.0000  0.0000  0.0000  0.0005  0.0000  0.0000 </r>
        <r>  0.0006  0.0000  0.0001  0.0000  0.0000  0.0000  0.0005  0.0000  0.0000 </r>
        <r>  0.0006  0.0000  0.0001  0.0000  0.0000  0.0000  0.0005  0.0000  0.0000 </r>
        <r>  0.0007  0.0000  0.0001  0.0000  0.0000  0.0000  0.0005  0.0000  0.0000 </r>
        <r>  0.0006  0.0000  0.0001  0.0000  0.0000  0.0000  0.0005  0.0000  0.0000 </r>
        <r>  0.0006  0.0000  0.0001  0.0000  0.0000  0.0000  0.0005  0.0000  0.0000 </r>
       </set>
       <set comment="band 236">
        <r>  0.0000  0.0000  0.0000  0.0000  0.0000  0.0002  0.0000  0.0002  0.0000 </r>
        <r>  0.0002  0.0000  0.0013  0.0000  0.0000  0.0001  0.0000  0.0001  0.0000 </r>
        <r>  0.0002  0.0000  0.0013  0.0000  0.0000  0.0001  0.0000  0.0001  0.0000 </r>
        <r>  0.0002  0.0000  0.0013  0.0000  0.0000  0.0001  0.0000  0.0001  0.0000 </r>
        <r>  0.0000  0.0000  0.0000  0.0000  0.0000  0.0002  0.0000  0.0002  0.0000 </r>
        <r>  0.0002  0.0000  0.0013  0.0000  0.0000  0.0001  0.0000  0.0001  0.0000 </r>
        <r>  0.0002  0.0000  0.0013  0.0000  0.0000  0.0001  0.0000  0.0001  0.0000 </r>
        <r>  0.0002  0.0000  0.0013  0.0000  0.0000  0.0001  0.0000  0.0001  0.0000 </r>
        <r>  0.0000  0.0000  0.0000  0.0000  0.0000  0.0002  0.0000  0.0002  0.0000 </r>
        <r>  0.0000  0.0000  0.0000  0.0000  0.0000  0.0002  0.0000  0.0002  0.0000 </r>
        <r>  0.0000  0.0000  0.0010  0.0000  0.0000  0.0001  0.0000  0.0001  0.0000 </r>
        <r>  0.0000  0.0000  0.0010  0.0000  0.0000  0.0001  0.0000  0.0001  0.0000 </r>
        <r>  0.0000  0.0000  0.0010  0.0000  0.0000  0.0001  0.0000  0.0001  0.0000 </r>
        <r>  0.0000  0.0000  0.0000  0.0000  0.0000  0.0002  0.0000  0.0002  0.0000 </r>
        <r>  0.0000  0.0000  0.0010  0.0000  0.0000  0.0001  0.0000  0.0001  0.0000 </r>
        <r>  0.0000  0.0000  0.0010  0.0000  0.0000  0.0001  0.0000  0.0001  0.0000 </r>
        <r>  0.0000  0.0000  0.0010  0.0000  0.0000  0.0001  0.0000  0.0001  0.0000 </r>
        <r>  0.0000  0.0000  0.0000  0.0000  0.0000  0.0002  0.0000  0.0002  0.0000 </r>
        <r>  0.0000  0.0000  0.0000  0.0000  0.0000  0.0002  0.0000  0.0002  0.0000 </r>
        <r>  0.0000  0.0000  0.0010  0.0000  0.0000  0.0001  0.0000  0.0001  0.0000 </r>
        <r>  0.0000  0.0000  0.0010  0.0000  0.0000  0.0001  0.0000  0.0001  0.0000 </r>
        <r>  0.0000  0.0000  0.0010  0.0000  0.0000  0.0001  0.0000  0.0001  0.0000 </r>
        <r>  0.0000  0.0000  0.0000  0.0000  0.0000  0.0002  0.0000  0.0002  0.0000 </r>
        <r>  0.0000  0.0000  0.0010  0.0000  0.0000  0.0001  0.0000  0.0001  0.0000 </r>
        <r>  0.0000  0.0000  0.0010  0.0000  0.0000  0.0001  0.0000  0.0001  0.0000 </r>
        <r>  0.0000  0.0000  0.0010  0.0000  0.0000  0.0001  0.0000  0.0001  0.0000 </r>
        <r>  0.0000  0.0000  0.0000  0.0000  0.0000  0.0002  0.0000  0.0002  0.0000 </r>
        <r>  0.0000  0.0000  0.0000  0.0000  0.0000  0.0002  0.0000  0.0002  0.0000 </r>
        <r>  0.0001  0.0000  0.0012  0.0000  0.0000  0.0001  0.0000  0.0001  0.0000 </r>
        <r>  0.0001  0.0000  0.0012  0.0000  0.0000  0.0001  0.0000  0.0001  0.0000 </r>
        <r>  0.0001  0.0000  0.0012  0.0000  0.0000  0.0001  0.0000  0.0001  0.0000 </r>
        <r>  0.0000  0.0000  0.0000  0.0000  0.0000  0.0002  0.0000  0.0002  0.0000 </r>
        <r>  0.0001  0.0000  0.0012  0.0000  0.0000  0.0001  0.0000  0.0001  0.0000 </r>
        <r>  0.0001  0.0000  0.0012  0.0000  0.0000  0.0001  0.0000  0.0001  0.0000 </r>
        <r>  0.0001  0.0000  0.0012  0.0000  0.0000  0.0001  0.0000  0.0001  0.0000 </r>
        <r>  0.0000  0.0000  0.0000  0.0000  0.0000  0.0002  0.0000  0.0002  0.0000 </r>
       </set>
       <set comment="band 237">
        <r>  0.0002  0.0000  0.0017  0.0000  0.0000  0.0000  0.0001  0.0000  0.0000 </r>
        <r>  0.0001  0.0000  0.0004  0.0000  0.0000  0.0001  0.0000  0.0001  0.0000 </r>
        <r>  0.0001  0.0000  0.0004  0.0000  0.0000  0.0001  0.0000  0.0001  0.0000 </r>
        <r>  0.0001  0.0000  0.0004  0.0000  0.0000  0.0001  0.0000  0.0001  0.0000 </r>
        <r>  0.0002  0.0000  0.0017  0.0000  0.0000  0.0000  0.0001  0.0000  0.0000 </r>
        <r>  0.0001  0.0000  0.0004  0.0000  0.0000  0.0001  0.0000  0.0001  0.0000 </r>
        <r>  0.0001  0.0000  0.0004  0.0000  0.0000  0.0001  0.0000  0.0001  0.0000 </r>
        <r>  0.0001  0.0000  0.0004  0.0000  0.0000  0.0001  0.0000  0.0001  0.0000 </r>
        <r>  0.0003  0.0000  0.0017  0.0000  0.0000  0.0000  0.0001  0.0000  0.0000 </r>
        <r>  0.0000  0.0000  0.0013  0.0000  0.0000  0.0000  0.0000  0.0000  0.0000 </r>
        <r>  0.0000  0.0000  0.0003  0.0000  0.0000  0.0001  0.0000  0.0001  0.0000 </r>
        <r>  0.0000  0.0000  0.0003  0.0000  0.0000  0.0001  0.0000  0.0001  0.0000 </r>
        <r>  0.0000  0.0000  0.0003  0.0000  0.0000  0.0001  0.0000  0.0001  0.0000 </r>
        <r>  0.0000  0.0000  0.0013  0.0000  0.0000  0.0000  0.0000  0.0000  0.0000 </r>
        <r>  0.0000  0.0000  0.0003  0.0000  0.0000  0.0001  0.0000  0.0001  0.0000 </r>
        <r>  0.0000  0.0000  0.0003  0.0000  0.0000  0.0001  0.0000  0.0001  0.0000 </r>
        <r>  0.0000  0.0000  0.0003  0.0000  0.0000  0.0001  0.0000  0.0001  0.0000 </r>
        <r>  0.0000  0.0000  0.0013  0.0000  0.0000  0.0000  0.0000  0.0000  0.0000 </r>
        <r>  0.0000  0.0000  0.0013  0.0000  0.0000  0.0000  0.0000  0.0000  0.0000 </r>
        <r>  0.0000  0.0000  0.0003  0.0000  0.0000  0.0001  0.0000  0.0001  0.0000 </r>
        <r>  0.0000  0.0000  0.0003  0.0000  0.0000  0.0001  0.0000  0.0001  0.0000 </r>
        <r>  0.0000  0.0000  0.0003  0.0000  0.0000  0.0001  0.0000  0.0001  0.0000 </r>
        <r>  0.0000  0.0000  0.0013  0.0000  0.0000  0.0000  0.0000  0.0000  0.0000 </r>
        <r>  0.0000  0.0000  0.0003  0.0000  0.0000  0.0001  0.0000  0.0001  0.0000 </r>
        <r>  0.0000  0.0000  0.0003  0.0000  0.0000  0.0001  0.0000  0.0001  0.0000 </r>
        <r>  0.0000  0.0000  0.0003  0.0000  0.0000  0.0001  0.0000  0.0001  0.0000 </r>
        <r>  0.0000  0.0000  0.0013  0.0000  0.0000  0.0000  0.0000  0.0000  0.0000 </r>
        <r>  0.0002  0.0000  0.0016  0.0000  0.0000  0.0000  0.0000  0.0000  0.0000 </r>
        <r>  0.0000  0.0000  0.0004  0.0000  0.0000  0.0001  0.0000  0.0001  0.0000 </r>
        <r>  0.0000  0.0000  0.0004  0.0000  0.0000  0.0001  0.0000  0.0001  0.0000 </r>
        <r>  0.0000  0.0000  0.0004  0.0000  0.0000  0.0001  0.0000  0.0001  0.0000 </r>
        <r>  0.0002  0.0000  0.0016  0.0000  0.0000  0.0000  0.0000  0.0000  0.0000 </r>
        <r>  0.0000  0.0000  0.0004  0.0000  0.0000  0.0001  0.0000  0.0001  0.0000 </r>
        <r>  0.0000  0.0000  0.0004  0.0000  0.0000  0.0001  0.0000  0.0001  0.0000 </r>
        <r>  0.0000  0.0000  0.0004  0.0000  0.0000  0.0001  0.0000  0.0001  0.0000 </r>
        <r>  0.0002  0.0000  0.0016  0.0000  0.0000  0.0000  0.0000  0.0000  0.0000 </r>
       </set>
      </set>
     </set>
    </set>
   </array>
  </projected>
 </calculation>
 <structure name="finalpos" >
  <crystal>
   <varray name="basis" >
    <v>       7.66857304       0.00000000       0.00000000 </v>
    <v>       0.00000000       7.66857304       0.00000000 </v>
    <v>       0.00000000       0.00000000      29.42250000 </v>
   </varray>
   <i name="volume">   1730.24932528 </i>
   <varray name="rec_basis" >
    <v>       0.13040236       0.00000000       0.00000000 </v>
    <v>       0.00000000       0.13040236       0.00000000 </v>
    <v>       0.00000000       0.00000000       0.03398759 </v>
   </varray>
  </crystal>
  <varray name="positions" >
   <v>       0.16666667       0.16666667       0.40785113 </v>
   <v>       0.50000000       0.16666667       0.40785113 </v>
   <v>       0.83333333       0.16666667       0.40785113 </v>
   <v>       0.16666667       0.50000000       0.40785113 </v>
   <v>       0.50000000       0.50000000       0.40785113 </v>
   <v>       0.83333333       0.50000000       0.40785113 </v>
   <v>       0.16666667       0.83333333       0.40785113 </v>
   <v>       0.50000000       0.83333333       0.40785113 </v>
   <v>       0.83333333       0.83333333       0.40785113 </v>
   <v>       0.00000000       0.00000000       0.46928371 </v>
   <v>       0.33333333       0.00000000       0.46928371 </v>
   <v>       0.66666667       0.00000000       0.46928371 </v>
   <v>       0.00000000       0.33333333       0.46928371 </v>
   <v>       0.33333333       0.33333333       0.46928371 </v>
   <v>       0.66666667       0.33333333       0.46928371 </v>
   <v>       0.00000000       0.66666667       0.46928371 </v>
   <v>       0.33333333       0.66666667       0.46928371 </v>
   <v>       0.66666667       0.66666667       0.46928371 </v>
   <v>       0.16666667       0.16666667       0.53371047 </v>
   <v>       0.50000000       0.16666667       0.53371047 </v>
   <v>       0.83333333       0.16666667       0.53371047 </v>
   <v>       0.16666667       0.50000000       0.53371047 </v>
   <v>       0.50000000       0.50000000       0.53371047 </v>
   <v>       0.83333333       0.50000000       0.53371047 </v>
   <v>       0.16666667       0.83333333       0.53371047 </v>
   <v>       0.50000000       0.83333333       0.53371047 </v>
   <v>       0.83333333       0.83333333       0.53371047 </v>
   <v>       1.00000000       1.00000000       0.59614827 </v>
   <v>       0.33333333       0.00000000       0.59614827 </v>
   <v>       0.66666667       0.00000000       0.59614827 </v>
   <v>       1.00000000       0.33333333       0.59614827 </v>
   <v>       0.33333333       0.33333333       0.59614827 </v>
   <v>       0.66666667       0.33333333       0.59614827 </v>
   <v>       1.00000000       0.66666667       0.59614827 </v>
   <v>       0.33333333       0.66666667       0.59614827 </v>
   <v>       0.66666667       0.66666667       0.59614827 </v>
  </varray>
  <varray name="selective"  type="logical" >
   <v type="logical" >  F  F  F </v>
   <v type="logical" >  F  F  F </v>
   <v type="logical" >  F  F  F </v>
   <v type="logical" >  F  F  F </v>
   <v type="logical" >  F  F  F </v>
   <v type="logical" >  F  F  F </v>
   <v type="logical" >  F  F  F </v>
   <v type="logical" >  F  F  F </v>
   <v type="logical" >  F  F  F </v>
   <v type="logical" >  F  F  F </v>
   <v type="logical" >  F  F  F </v>
   <v type="logical" >  F  F  F </v>
   <v type="logical" >  F  F  F </v>
   <v type="logical" >  F  F  F </v>
   <v type="logical" >  F  F  F </v>
   <v type="logical" >  F  F  F </v>
   <v type="logical" >  F  F  F </v>
   <v type="logical" >  F  F  F </v>
   <v type="logical" >  T  T  T </v>
   <v type="logical" >  T  T  T </v>
   <v type="logical" >  T  T  T </v>
   <v type="logical" >  T  T  T </v>
   <v type="logical" >  T  T  T </v>
   <v type="logical" >  T  T  T </v>
   <v type="logical" >  T  T  T </v>
   <v type="logical" >  T  T  T </v>
   <v type="logical" >  T  T  T </v>
   <v type="logical" >  T  T  T </v>
   <v type="logical" >  T  T  T </v>
   <v type="logical" >  T  T  T </v>
   <v type="logical" >  T  T  T </v>
   <v type="logical" >  T  T  T </v>
   <v type="logical" >  T  T  T </v>
   <v type="logical" >  T  T  T </v>
   <v type="logical" >  T  T  T </v>
   <v type="logical" >  T  T  T </v>
  </varray>
  <nose>
   <v>      -3.00000000       0.00000000       0.00010000       0.00010000 </v>
  </nose>
 </structure>
</modeling>
