Cu(100) coverage-dependent binding (RPBE
            1
     7.668573    0.000000    0.000000
     0.000000    7.668573    0.000000
     0.000000    0.000000   29.422500
   Cu
    36
Direct configuration=     1
   0.16666667  0.16666667  0.40785113
   0.50000000  0.16666667  0.40785113
   0.83333333  0.16666667  0.40785113
   0.16666667  0.50000000  0.40785113
   0.50000000  0.50000000  0.40785113
   0.83333333  0.50000000  0.40785113
   0.16666667  0.83333333  0.40785113
   0.50000000  0.83333333  0.40785113
   0.83333333  0.83333333  0.40785113
   0.00000000  0.00000000  0.46928371
   0.33333333  0.00000000  0.46928371
   0.66666667  0.00000000  0.46928371
   0.00000000  0.33333333  0.46928371
   0.33333333  0.33333333  0.46928371
   0.66666667  0.33333333  0.46928371
   0.00000000  0.66666667  0.46928371
   0.33333333  0.66666667  0.46928371
   0.66666667  0.66666667  0.46928371
   0.16666667  0.16666667  0.53071629
   0.50000000  0.16666667  0.53071629
   0.83333333  0.16666667  0.53071629
   0.16666667  0.50000000  0.53071629
   0.50000000  0.50000000  0.53071629
   0.83333333  0.50000000  0.53071629
   0.16666667  0.83333333  0.53071629
   0.50000000  0.83333333  0.53071629
   0.83333333  0.83333333  0.53071629
   0.00000000  0.00000000  0.59214887
   0.33333333  0.00000000  0.59214887
   0.66666667  0.00000000  0.59214887
   0.00000000  0.33333333  0.59214887
   0.33333333  0.33333333  0.59214887
   0.66666667  0.33333333  0.59214887
   0.00000000  0.66666667  0.59214887
   0.33333333  0.66666667  0.59214887
   0.66666667  0.66666667  0.59214887
Direct configuration=     2
   0.16666667  0.16666667  0.40785113
   0.50000000  0.16666667  0.40785113
   0.83333333  0.16666667  0.40785113
   0.16666667  0.50000000  0.40785113
   0.50000000  0.50000000  0.40785113
   0.83333333  0.50000000  0.40785113
   0.16666667  0.83333333  0.40785113
   0.50000000  0.83333333  0.40785113
   0.83333333  0.83333333  0.40785113
   0.00000000  0.00000000  0.46928371
   0.33333333  0.00000000  0.46928371
   0.66666667  0.00000000  0.46928371
   0.00000000  0.33333333  0.46928371
   0.33333333  0.33333333  0.46928371
   0.66666667  0.33333333  0.46928371
   0.00000000  0.66666667  0.46928371
   0.33333333  0.66666667  0.46928371
   0.66666667  0.66666667  0.46928371
   0.16666667  0.16666667  0.53106556
   0.50000000  0.16666667  0.53106556
   0.83333333  0.16666667  0.53106556
   0.16666667  0.50000000  0.53106556
   0.50000000  0.50000000  0.53106556
   0.83333333  0.50000000  0.53106556
   0.16666667  0.83333333  0.53106556
   0.50000000  0.83333333  0.53106556
   0.83333333  0.83333333  0.53106556
   1.00000000  1.00000000  0.59235562
   0.33333333  0.00000000  0.59235562
   0.66666667  0.00000000  0.59235562
   1.00000000  0.33333333  0.59235562
   0.33333333  0.33333333  0.59235562
   0.66666667  0.33333333  0.59235562
   0.00000000  0.66666667  0.59235562
   0.33333333  0.66666667  0.59235562
   0.66666667  0.66666667  0.59235562
Direct configuration=     3
   0.16666667  0.16666667  0.40785113
   0.50000000  0.16666667  0.40785113
   0.83333333  0.16666667  0.40785113
   0.16666667  0.50000000  0.40785113
   0.50000000  0.50000000  0.40785113
   0.83333333  0.50000000  0.40785113
   0.16666667  0.83333333  0.40785113
   0.50000000  0.83333333  0.40785113
   0.83333333  0.83333333  0.40785113
   0.00000000  0.00000000  0.46928371
   0.33333333  0.00000000  0.46928371
   0.66666667  0.00000000  0.46928371
   0.00000000  0.33333333  0.46928371
   0.33333333  0.33333333  0.46928371
   0.66666667  0.33333333  0.46928371
   0.00000000  0.66666667  0.46928371
   0.33333333  0.66666667  0.46928371
   0.66666667  0.66666667  0.46928371
   0.16666667  0.16666667  0.53211338
   0.50000000  0.16666667  0.53211338
   0.83333333  0.16666667  0.53211338
   0.16666667  0.50000000  0.53211338
   0.50000000  0.50000000  0.53211338
   0.83333333  0.50000000  0.53211338
   0.16666667  0.83333333  0.53211338
   0.50000000  0.83333333  0.53211338
   0.83333333  0.83333333  0.53211338
   0.00000000  0.00000000  0.59297590
   0.33333333  0.00000000  0.59297590
   0.66666667  0.00000000  0.59297590
   0.00000000  0.33333333  0.59297590
   0.33333333  0.33333333  0.59297590
   0.66666667  0.33333333  0.59297590
   0.00000000  0.66666667  0.59297590
   0.33333333  0.66666667  0.59297590
   0.66666667  0.66666667  0.59297590
Direct configuration=     4
   0.16666667  0.16666667  0.40785113
   0.50000000  0.16666667  0.40785113
   0.83333333  0.16666667  0.40785113
   0.16666667  0.50000000  0.40785113
   0.50000000  0.50000000  0.40785113
   0.83333333  0.50000000  0.40785113
   0.16666667  0.83333333  0.40785113
   0.50000000  0.83333333  0.40785113
   0.83333333  0.83333333  0.40785113
   0.00000000  0.00000000  0.46928371
   0.33333333  0.00000000  0.46928371
   0.66666667  0.00000000  0.46928371
   0.00000000  0.33333333  0.46928371
   0.33333333  0.33333333  0.46928371
   0.66666667  0.33333333  0.46928371
   0.00000000  0.66666667  0.46928371
   0.33333333  0.66666667  0.46928371
   0.66666667  0.66666667  0.46928371
   0.16666667  0.16666667  0.53420902
   0.50000000  0.16666667  0.53420902
   0.83333333  0.16666667  0.53420902
   0.16666667  0.50000000  0.53420902
   0.50000000  0.50000000  0.53420902
   0.83333333  0.50000000  0.53420902
   0.16666667  0.83333333  0.53420902
   0.50000000  0.83333333  0.53420902
   0.83333333  0.83333333  0.53420902
   1.00000000  1.00000000  0.59421645
   0.33333333  0.00000000  0.59421645
   0.66666667  0.00000000  0.59421645
   1.00000000  0.33333333  0.59421645
   0.33333333  0.33333333  0.59421645
   0.66666667  0.33333333  0.59421645
   0.00000000  0.66666667  0.59421645
   0.33333333  0.66666667  0.59421645
   0.66666667  0.66666667  0.59421645
Direct configuration=     5
   0.16666667  0.16666667  0.40785113
   0.50000000  0.16666667  0.40785113
   0.83333333  0.16666667  0.40785113
   0.16666667  0.50000000  0.40785113
   0.50000000  0.50000000  0.40785113
   0.83333333  0.50000000  0.40785113
   0.16666667  0.83333333  0.40785113
   0.50000000  0.83333333  0.40785113
   0.83333333  0.83333333  0.40785113
   0.00000000  0.00000000  0.46928371
   0.33333333  0.00000000  0.46928371
   0.66666667  0.00000000  0.46928371
   0.00000000  0.33333333  0.46928371
   0.33333333  0.33333333  0.46928371
   0.66666667  0.33333333  0.46928371
   0.00000000  0.66666667  0.46928371
   0.33333333  0.66666667  0.46928371
   0.66666667  0.66666667  0.46928371
   0.16666667  0.16666667  0.53293265
   0.50000000  0.16666667  0.53293265
   0.83333333  0.16666667  0.53293265
   0.16666667  0.50000000  0.53293265
   0.50000000  0.50000000  0.53293265
   0.83333333  0.50000000  0.53293265
   0.16666667  0.83333333  0.53293265
   0.50000000  0.83333333  0.53293265
   0.83333333  0.83333333  0.53293265
   0.00000000  0.00000000  0.59346088
   0.33333333  0.00000000  0.59346088
   0.66666667  0.00000000  0.59346088
   0.00000000  0.33333333  0.59346088
   0.33333333  0.33333333  0.59346088
   0.66666667  0.33333333  0.59346088
   0.00000000  0.66666667  0.59346088
   0.33333333  0.66666667  0.59346088
   0.66666667  0.66666667  0.59346088
Direct configuration=     6
   0.16666667  0.16666667  0.40785113
   0.50000000  0.16666667  0.40785113
   0.83333333  0.16666667  0.40785113
   0.16666667  0.50000000  0.40785113
   0.50000000  0.50000000  0.40785113
   0.83333333  0.50000000  0.40785113
   0.16666667  0.83333333  0.40785113
   0.50000000  0.83333333  0.40785113
   0.83333333  0.83333333  0.40785113
   0.00000000  0.00000000  0.46928371
   0.33333333  0.00000000  0.46928371
   0.66666667  0.00000000  0.46928371
   0.00000000  0.33333333  0.46928371
   0.33333333  0.33333333  0.46928371
   0.66666667  0.33333333  0.46928371
   0.00000000  0.66666667  0.46928371
   0.33333333  0.66666667  0.46928371
   0.66666667  0.66666667  0.46928371
   0.16666667  0.16666667  0.53308302
   0.50000000  0.16666667  0.53308302
   0.83333333  0.16666667  0.53308302
   0.16666667  0.50000000  0.53308302
   0.50000000  0.50000000  0.53308302
   0.83333333  0.50000000  0.53308302
   0.16666667  0.83333333  0.53308302
   0.50000000  0.83333333  0.53308302
   0.83333333  0.83333333  0.53308302
   1.00000000  1.00000000  0.59398041
   0.33333333  0.00000000  0.59398041
   0.66666667  0.00000000  0.59398041
   1.00000000  0.33333333  0.59398041
   0.33333333  0.33333333  0.59398041
   0.66666667  0.33333333  0.59398041
   1.00000000  0.66666667  0.59398041
   0.33333333  0.66666667  0.59398041
   0.66666667  0.66666667  0.59398041
Direct configuration=     7
   0.16666667  0.16666667  0.40785113
   0.50000000  0.16666667  0.40785113
   0.83333333  0.16666667  0.40785113
   0.16666667  0.50000000  0.40785113
   0.50000000  0.50000000  0.40785113
   0.83333333  0.50000000  0.40785113
   0.16666667  0.83333333  0.40785113
   0.50000000  0.83333333  0.40785113
   0.83333333  0.83333333  0.40785113
   0.00000000  0.00000000  0.46928371
   0.33333333  0.00000000  0.46928371
   0.66666667  0.00000000  0.46928371
   0.00000000  0.33333333  0.46928371
   0.33333333  0.33333333  0.46928371
   0.66666667  0.33333333  0.46928371
   0.00000000  0.66666667  0.46928371
   0.33333333  0.66666667  0.46928371
   0.66666667  0.66666667  0.46928371
   0.16666667  0.16666667  0.53353413
   0.50000000  0.16666667  0.53353413
   0.83333333  0.16666667  0.53353413
   0.16666667  0.50000000  0.53353413
   0.50000000  0.50000000  0.53353413
   0.83333333  0.50000000  0.53353413
   0.16666667  0.83333333  0.53353413
   0.50000000  0.83333333  0.53353413
   0.83333333  0.83333333  0.53353413
   0.00000000  0.00000000  0.59553900
   0.33333333  0.00000000  0.59553900
   0.66666667  1.00000000  0.59553900
   0.00000000  0.33333333  0.59553900
   0.33333333  0.33333333  0.59553900
   0.66666667  0.33333333  0.59553900
   0.00000000  0.66666667  0.59553900
   0.33333333  0.66666667  0.59553900
   0.66666667  0.66666667  0.59553900
Direct configuration=     8
   0.16666667  0.16666667  0.40785113
   0.50000000  0.16666667  0.40785113
   0.83333333  0.16666667  0.40785113
   0.16666667  0.50000000  0.40785113
   0.50000000  0.50000000  0.40785113
   0.83333333  0.50000000  0.40785113
   0.16666667  0.83333333  0.40785113
   0.50000000  0.83333333  0.40785113
   0.83333333  0.83333333  0.40785113
   0.00000000  0.00000000  0.46928371
   0.33333333  0.00000000  0.46928371
   0.66666667  0.00000000  0.46928371
   0.00000000  0.33333333  0.46928371
   0.33333333  0.33333333  0.46928371
   0.66666667  0.33333333  0.46928371
   0.00000000  0.66666667  0.46928371
   0.33333333  0.66666667  0.46928371
   0.66666667  0.66666667  0.46928371
   0.16666667  0.16666667  0.53371047
   0.50000000  0.16666667  0.53371047
   0.83333333  0.16666667  0.53371047
   0.16666667  0.50000000  0.53371047
   0.50000000  0.50000000  0.53371047
   0.83333333  0.50000000  0.53371047
   0.16666667  0.83333333  0.53371047
   0.50000000  0.83333333  0.53371047
   0.83333333  0.83333333  0.53371047
   1.00000000  1.00000000  0.59614827
   0.33333333  0.00000000  0.59614827
   0.66666667  0.00000000  0.59614827
   1.00000000  0.33333333  0.59614827
   0.33333333  0.33333333  0.59614827
   0.66666667  0.33333333  0.59614827
   1.00000000  0.66666667  0.59614827
   0.33333333  0.66666667  0.59614827
   0.66666667  0.66666667  0.59614827
