  64  64   1   0
  0.5191685E+02  0.1028133E-08  0.1028133E-08  0.3629601E-08  0.5000000E-15
   1.0000000000000000E-004
  CAR 
 Cu-Au(111) 4x4 slab relaxation          
      9.54125669    -75.77518033  301     -1.91657644      1.00000000
    -75.775  0.0000E+00  0.0000E+00
    -75.491  0.0000E+00  0.0000E+00
    -75.206  0.0000E+00  0.0000E+00
    -74.922  0.0000E+00  0.0000E+00
    -74.638  0.0000E+00  0.0000E+00
    -74.353  0.0000E+00  0.0000E+00
    -74.069  0.0000E+00  0.0000E+00
    -73.784  0.0000E+00  0.0000E+00
    -73.500  0.0000E+00  0.0000E+00
    -73.216  0.0000E+00  0.0000E+00
    -72.931 -0.6709E-47 -0.1908E-47
    -72.647 -0.6379E-25 -0.1814E-25
    -72.363 -0.5156E-10 -0.1466E-10
    -72.078 -0.3498E-02 -0.9949E-03
    -71.794  0.1434E+01  0.4067E+00
    -71.509  0.3735E+01  0.1469E+01
    -71.225  0.7435E+00  0.1680E+01
    -70.941 -0.1354E-02  0.1680E+01
    -70.656 -0.1542E-11  0.1680E+01
    -70.372  0.0000E+00  0.1680E+01
    -70.087  0.0000E+00  0.1680E+01
    -69.803  0.0000E+00  0.1680E+01
    -69.519  0.0000E+00  0.1680E+01
    -69.234  0.0000E+00  0.1680E+01
    -68.950  0.0000E+00  0.1680E+01
    -68.665  0.0000E+00  0.1680E+01
    -68.381  0.0000E+00  0.1680E+01
    -68.097  0.0000E+00  0.1680E+01
    -67.812  0.0000E+00  0.1680E+01
    -67.528  0.0000E+00  0.1680E+01
    -67.244  0.0000E+00  0.1680E+01
    -66.959  0.0000E+00  0.1680E+01
    -66.675  0.0000E+00  0.1680E+01
    -66.390  0.0000E+00  0.1680E+01
    -66.106  0.0000E+00  0.1680E+01
    -65.822  0.0000E+00  0.1680E+01
    -65.537  0.0000E+00  0.1680E+01
    -65.253  0.0000E+00  0.1680E+01
    -64.968  0.0000E+00  0.1680E+01
    -64.684  0.0000E+00  0.1680E+01
    -64.400  0.0000E+00  0.1680E+01
    -64.115  0.0000E+00  0.1680E+01
    -63.831  0.0000E+00  0.1680E+01
    -63.546  0.0000E+00  0.1680E+01
    -63.262  0.0000E+00  0.1680E+01
    -62.978  0.0000E+00  0.1680E+01
    -62.693  0.0000E+00  0.1680E+01
    -62.409  0.0000E+00  0.1680E+01
    -62.125  0.0000E+00  0.1680E+01
    -61.840  0.0000E+00  0.1680E+01
    -61.556  0.0000E+00  0.1680E+01
    -61.271  0.0000E+00  0.1680E+01
    -60.987  0.0000E+00  0.1680E+01
    -60.703  0.0000E+00  0.1680E+01
    -60.418  0.0000E+00  0.1680E+01
    -60.134  0.0000E+00  0.1680E+01
    -59.849  0.0000E+00  0.1680E+01
    -59.565  0.0000E+00  0.1680E+01
    -59.281  0.0000E+00  0.1680E+01
    -58.996  0.0000E+00  0.1680E+01
    -58.712  0.0000E+00  0.1680E+01
    -58.428  0.0000E+00  0.1680E+01
    -58.143  0.0000E+00  0.1680E+01
    -57.859  0.0000E+00  0.1680E+01
    -57.574  0.0000E+00  0.1680E+01
    -57.290  0.0000E+00  0.1680E+01
    -57.006  0.0000E+00  0.1680E+01
    -56.721  0.0000E+00  0.1680E+01
    -56.437  0.0000E+00  0.1680E+01
    -56.152  0.0000E+00  0.1680E+01
    -55.868  0.0000E+00  0.1680E+01
    -55.584  0.0000E+00  0.1680E+01
    -55.299  0.0000E+00  0.1680E+01
    -55.015  0.0000E+00  0.1680E+01
    -54.730  0.0000E+00  0.1680E+01
    -54.446  0.0000E+00  0.1680E+01
    -54.162  0.0000E+00  0.1680E+01
    -53.877  0.0000E+00  0.1680E+01
    -53.593  0.0000E+00  0.1680E+01
    -53.309  0.0000E+00  0.1680E+01
    -53.024  0.0000E+00  0.1680E+01
    -52.740  0.0000E+00  0.1680E+01
    -52.455  0.0000E+00  0.1680E+01
    -52.171  0.0000E+00  0.1680E+01
    -51.887  0.0000E+00  0.1680E+01
    -51.602  0.0000E+00  0.1680E+01
    -51.318  0.0000E+00  0.1680E+01
    -51.033  0.0000E+00  0.1680E+01
    -50.749  0.0000E+00  0.1680E+01
    -50.465  0.0000E+00  0.1680E+01
    -50.180  0.0000E+00  0.1680E+01
    -49.896  0.0000E+00  0.1680E+01
    -49.611  0.0000E+00  0.1680E+01
    -49.327  0.0000E+00  0.1680E+01
    -49.043  0.0000E+00  0.1680E+01
    -48.758  0.0000E+00  0.1680E+01
    -48.474  0.0000E+00  0.1680E+01
    -48.190  0.0000E+00  0.1680E+01
    -47.905  0.0000E+00  0.1680E+01
    -47.621  0.0000E+00  0.1680E+01
    -47.336  0.0000E+00  0.1680E+01
    -47.052  0.0000E+00  0.1680E+01
    -46.768  0.0000E+00  0.1680E+01
    -46.483  0.0000E+00  0.1680E+01
    -46.199  0.0000E+00  0.1680E+01
    -45.914  0.0000E+00  0.1680E+01
    -45.630  0.0000E+00  0.1680E+01
    -45.346  0.0000E+00  0.1680E+01
    -45.061  0.0000E+00  0.1680E+01
    -44.777  0.0000E+00  0.1680E+01
    -44.492  0.0000E+00  0.1680E+01
    -44.208  0.0000E+00  0.1680E+01
    -43.924  0.0000E+00  0.1680E+01
    -43.639  0.0000E+00  0.1680E+01
    -43.355  0.0000E+00  0.1680E+01
    -43.071  0.0000E+00  0.1680E+01
    -42.786  0.0000E+00  0.1680E+01
    -42.502  0.0000E+00  0.1680E+01
    -42.217  0.0000E+00  0.1680E+01
    -41.933  0.0000E+00  0.1680E+01
    -41.649  0.0000E+00  0.1680E+01
    -41.364  0.0000E+00  0.1680E+01
    -41.080  0.0000E+00  0.1680E+01
    -40.795  0.0000E+00  0.1680E+01
    -40.511  0.0000E+00  0.1680E+01
    -40.227  0.0000E+00  0.1680E+01
    -39.942  0.0000E+00  0.1680E+01
    -39.658  0.0000E+00  0.1680E+01
    -39.374  0.0000E+00  0.1680E+01
    -39.089  0.0000E+00  0.1680E+01
    -38.805  0.0000E+00  0.1680E+01
    -38.520  0.0000E+00  0.1680E+01
    -38.236  0.0000E+00  0.1680E+01
    -37.952  0.0000E+00  0.1680E+01
    -37.667  0.0000E+00  0.1680E+01
    -37.383  0.0000E+00  0.1680E+01
    -37.098  0.0000E+00  0.1680E+01
    -36.814  0.0000E+00  0.1680E+01
    -36.530  0.0000E+00  0.1680E+01
    -36.245  0.0000E+00  0.1680E+01
    -35.961  0.0000E+00  0.1680E+01
    -35.676  0.0000E+00  0.1680E+01
    -35.392  0.0000E+00  0.1680E+01
    -35.108  0.0000E+00  0.1680E+01
    -34.823  0.0000E+00  0.1680E+01
    -34.539  0.0000E+00  0.1680E+01
    -34.255  0.0000E+00  0.1680E+01
    -33.970  0.0000E+00  0.1680E+01
    -33.686  0.0000E+00  0.1680E+01
    -33.401  0.0000E+00  0.1680E+01
    -33.117  0.0000E+00  0.1680E+01
    -32.833  0.0000E+00  0.1680E+01
    -32.548  0.0000E+00  0.1680E+01
    -32.264  0.0000E+00  0.1680E+01
    -31.979  0.0000E+00  0.1680E+01
    -31.695  0.0000E+00  0.1680E+01
    -31.411  0.0000E+00  0.1680E+01
    -31.126  0.0000E+00  0.1680E+01
    -30.842  0.0000E+00  0.1680E+01
    -30.557  0.0000E+00  0.1680E+01
    -30.273  0.0000E+00  0.1680E+01
    -29.989  0.0000E+00  0.1680E+01
    -29.704  0.0000E+00  0.1680E+01
    -29.420  0.0000E+00  0.1680E+01
    -29.136  0.0000E+00  0.1680E+01
    -28.851  0.0000E+00  0.1680E+01
    -28.567  0.0000E+00  0.1680E+01
    -28.282  0.0000E+00  0.1680E+01
    -27.998  0.0000E+00  0.1680E+01
    -27.714  0.0000E+00  0.1680E+01
    -27.429  0.0000E+00  0.1680E+01
    -27.145  0.0000E+00  0.1680E+01
    -26.860  0.0000E+00  0.1680E+01
    -26.576  0.0000E+00  0.1680E+01
    -26.292  0.0000E+00  0.1680E+01
    -26.007  0.0000E+00  0.1680E+01
    -25.723  0.0000E+00  0.1680E+01
    -25.438  0.0000E+00  0.1680E+01
    -25.154  0.0000E+00  0.1680E+01
    -24.870  0.0000E+00  0.1680E+01
    -24.585  0.0000E+00  0.1680E+01
    -24.301  0.0000E+00  0.1680E+01
    -24.017  0.0000E+00  0.1680E+01
    -23.732  0.0000E+00  0.1680E+01
    -23.448  0.0000E+00  0.1680E+01
    -23.163  0.0000E+00  0.1680E+01
    -22.879  0.0000E+00  0.1680E+01
    -22.595  0.0000E+00  0.1680E+01
    -22.310  0.0000E+00  0.1680E+01
    -22.026  0.0000E+00  0.1680E+01
    -21.741  0.0000E+00  0.1680E+01
    -21.457  0.0000E+00  0.1680E+01
    -21.173  0.0000E+00  0.1680E+01
    -20.888  0.0000E+00  0.1680E+01
    -20.604  0.0000E+00  0.1680E+01
    -20.319  0.0000E+00  0.1680E+01
    -20.035  0.0000E+00  0.1680E+01
    -19.751  0.0000E+00  0.1680E+01
    -19.466  0.0000E+00  0.1680E+01
    -19.182  0.0000E+00  0.1680E+01
    -18.898  0.0000E+00  0.1680E+01
    -18.613  0.0000E+00  0.1680E+01
    -18.329  0.0000E+00  0.1680E+01
    -18.044  0.0000E+00  0.1680E+01
    -17.760  0.0000E+00  0.1680E+01
    -17.476  0.0000E+00  0.1680E+01
    -17.191  0.0000E+00  0.1680E+01
    -16.907  0.0000E+00  0.1680E+01
    -16.622  0.0000E+00  0.1680E+01
    -16.338  0.0000E+00  0.1680E+01
    -16.054  0.0000E+00  0.1680E+01
    -15.769  0.0000E+00  0.1680E+01
    -15.485  0.0000E+00  0.1680E+01
    -15.201  0.0000E+00  0.1680E+01
    -14.916  0.0000E+00  0.1680E+01
    -14.632  0.0000E+00  0.1680E+01
    -14.347  0.0000E+00  0.1680E+01
    -14.063  0.0000E+00  0.1680E+01
    -13.779  0.0000E+00  0.1680E+01
    -13.494  0.0000E+00  0.1680E+01
    -13.210  0.0000E+00  0.1680E+01
    -12.925  0.0000E+00  0.1680E+01
    -12.641  0.0000E+00  0.1680E+01
    -12.357  0.0000E+00  0.1680E+01
    -12.072 -0.1718E-41  0.1680E+01
    -11.788 -0.1633E-21  0.1680E+01
    -11.503 -0.1126E-08  0.1680E+01
    -11.219 -0.1130E-03  0.1680E+01
    -10.935  0.7453E-02  0.1682E+01
    -10.650  0.1980E-01  0.1688E+01
    -10.366  0.1681E-01  0.1692E+01
    -10.082  0.3412E-01  0.1702E+01
     -9.797  0.2370E-01  0.1709E+01
     -9.513  0.6109E-01  0.1726E+01
     -9.228  0.3101E-01  0.1735E+01
     -8.944  0.4891E-01  0.1749E+01
     -8.660  0.6856E-01  0.1769E+01
     -8.375  0.1598E+00  0.1814E+01
     -8.091  0.1058E+00  0.1844E+01
     -7.806  0.1425E+00  0.1885E+01
     -7.522  0.1553E+00  0.1929E+01
     -7.238  0.1553E+00  0.1973E+01
     -6.953  0.1719E+00  0.2022E+01
     -6.669  0.2449E+00  0.2091E+01
     -6.384  0.3270E+00  0.2184E+01
     -6.100  0.5104E+00  0.2330E+01
     -5.816  0.6626E+00  0.2518E+01
     -5.531  0.5804E+00  0.2683E+01
     -5.247  0.6612E+00  0.2871E+01
     -4.963  0.8163E+00  0.3103E+01
     -4.678  0.1103E+01  0.3417E+01
     -4.394  0.1155E+01  0.3746E+01
     -4.109  0.8859E+00  0.3997E+01
     -3.825  0.1177E+01  0.4332E+01
     -3.541  0.1159E+01  0.4662E+01
     -3.256  0.1284E+01  0.5027E+01
     -2.972  0.1881E+00  0.5080E+01
     -2.687  0.9499E-01  0.5107E+01
     -2.403  0.1581E+00  0.5152E+01
     -2.119  0.3376E-01  0.5162E+01
     -1.834  0.1655E+00  0.5209E+01
     -1.550  0.5042E-01  0.5223E+01
     -1.265  0.1528E+00  0.5267E+01
     -0.981  0.1162E+00  0.5300E+01
     -0.697  0.4128E-01  0.5312E+01
     -0.412  0.6910E-01  0.5331E+01
     -0.128  0.1742E+00  0.5381E+01
      0.156  0.7847E-01  0.5403E+01
      0.441  0.3372E-01  0.5413E+01
      0.725  0.1544E+00  0.5457E+01
      1.010  0.1323E+00  0.5494E+01
      1.294  0.3224E-01  0.5503E+01
      1.578  0.1465E-01  0.5508E+01
      1.863  0.8002E-01  0.5530E+01
      2.147  0.9868E-01  0.5558E+01
      2.432  0.7344E-01  0.5579E+01
      2.716  0.9997E-01  0.5608E+01
      3.000  0.1231E+00  0.5643E+01
      3.285  0.1328E+00  0.5680E+01
      3.569  0.2158E+00  0.5742E+01
      3.853  0.2243E+00  0.5806E+01
      4.138  0.1487E+00  0.5848E+01
      4.422  0.2804E+00  0.5928E+01
      4.707  0.2138E+00  0.5988E+01
      4.991  0.2346E+00  0.6055E+01
      5.275  0.2342E+00  0.6122E+01
      5.560  0.2925E+00  0.6205E+01
      5.844  0.1239E+00  0.6240E+01
      6.129 -0.7387E-03  0.6240E+01
      6.413 -0.1873E-10  0.6240E+01
      6.697  0.0000E+00  0.6240E+01
      6.982  0.0000E+00  0.6240E+01
      7.266  0.0000E+00  0.6240E+01
      7.551  0.0000E+00  0.6240E+01
      7.835  0.0000E+00  0.6240E+01
      8.119  0.0000E+00  0.6240E+01
      8.404  0.0000E+00  0.6240E+01
      8.688  0.0000E+00  0.6240E+01
      8.972  0.0000E+00  0.6240E+01
      9.257  0.0000E+00  0.6240E+01
      9.541  0.0000E+00  0.6240E+01
      9.54125669    -75.77518033  301     -1.91657644      1.00000000
    -75.775  0.0000E+00  0.0000E+00  0.0000E+00  0.0000E+00  0.0000E+00  0.0000E+00  0.0000E+00  0.0000E+00  0.0000E+00
    -75.491  0.0000E+00  0.0000E+00  0.0000E+00  0.0000E+00  0.0000E+00  0.0000E+00  0.0000E+00  0.0000E+00  0.0000E+00
    -75.206  0.0000E+00  0.0000E+00  0.0000E+00  0.0000E+00  0.0000E+00  0.0000E+00  0.0000E+00  0.0000E+00  0.0000E+00
    -74.922  0.0000E+00  0.0000E+00  0.0000E+00  0.0000E+00  0.0000E+00  0.0000E+00  0.0000E+00  0.0000E+00  0.0000E+00
    -74.638  0.0000E+00  0.0000E+00  0.0000E+00  0.0000E+00  0.0000E+00  0.0000E+00  0.0000E+00  0.0000E+00  0.0000E+00
    -74.353  0.0000E+00  0.0000E+00  0.0000E+00  0.0000E+00  0.0000E+00  0.0000E+00  0.0000E+00  0.0000E+00  0.0000E+00
    -74.069  0.0000E+00  0.0000E+00  0.0000E+00  0.0000E+00  0.0000E+00  0.0000E+00  0.0000E+00  0.0000E+00  0.0000E+00
    -73.784  0.0000E+00  0.0000E+00  0.0000E+00  0.0000E+00  0.0000E+00  0.0000E+00  0.0000E+00  0.0000E+00  0.0000E+00
    -73.500  0.0000E+00  0.0000E+00  0.0000E+00  0.0000E+00  0.0000E+00  0.0000E+00  0.0000E+00  0.0000E+00  0.0000E+00
    -73.216  0.0000E+00  0.0000E+00  0.0000E+00  0.0000E+00  0.0000E+00  0.0000E+00  0.0000E+00  0.0000E+00  0.0000E+00
    -72.931 -0.9151E-53 -0.1259E-52 -0.9618E-54 -0.3541E-53 -0.1127E-52 -0.9562E-54 -0.1686E-52 -0.3536E-55 -0.2915E-53
    -72.647 -0.8086E-31 -0.1096E-30 -0.9575E-32 -0.3969E-31 -0.1270E-30 -0.8987E-32 -0.1475E-30 -0.5067E-33 -0.2538E-31
    -72.363 -0.6688E-16 -0.8072E-16 -0.1409E-16 -0.3561E-16 -0.1140E-15 -0.1350E-16 -0.1045E-15 -0.1063E-17 -0.1917E-16
    -72.078 -0.1592E-07 -0.1170E-07 -0.8150E-08 -0.2776E-08 -0.8152E-08 -0.1034E-07 -0.7575E-08 -0.7504E-09 -0.3849E-08
    -71.794  0.1696E-04  0.1355E-04  0.7253E-05  0.3586E-05  0.1065E-04  0.8301E-05  0.9010E-05  0.9587E-06  0.4763E-05
    -71.509  0.5633E-04  0.5510E-04  0.1340E-04  0.2172E-04  0.6386E-04  0.1374E-04  0.3590E-04  0.1103E-04  0.2183E-04
    -71.225 -0.2827E-06 -0.2901E-06 -0.5972E-07 -0.1356E-06 -0.4109E-06 -0.8986E-07 -0.1753E-06 -0.9044E-07 -0.1192E-06
    -70.941 -0.8851E-12 -0.1562E-11 -0.6808E-11 -0.1229E-11 -0.5573E-12 -0.2987E-11 -0.4739E-11 -0.2742E-11 -0.4934E-12
    -70.656 -0.4105E-21 -0.1476E-20 -0.8957E-20 -0.1664E-20 -0.5987E-21 -0.3093E-20 -0.3273E-20 -0.2766E-20 -0.4879E-21
    -70.372  0.0000E+00  0.0000E+00  0.0000E+00  0.0000E+00  0.0000E+00  0.0000E+00  0.0000E+00  0.0000E+00  0.0000E+00
    -70.087  0.0000E+00  0.0000E+00  0.0000E+00  0.0000E+00  0.0000E+00  0.0000E+00  0.0000E+00  0.0000E+00  0.0000E+00
    -69.803  0.0000E+00  0.0000E+00  0.0000E+00  0.0000E+00  0.0000E+00  0.0000E+00  0.0000E+00  0.0000E+00  0.0000E+00
    -69.519  0.0000E+00  0.0000E+00  0.0000E+00  0.0000E+00  0.0000E+00  0.0000E+00  0.0000E+00  0.0000E+00  0.0000E+00
    -69.234  0.0000E+00  0.0000E+00  0.0000E+00  0.0000E+00  0.0000E+00  0.0000E+00  0.0000E+00  0.0000E+00  0.0000E+00
    -68.950  0.0000E+00  0.0000E+00  0.0000E+00  0.0000E+00  0.0000E+00  0.0000E+00  0.0000E+00  0.0000E+00  0.0000E+00
    -68.665  0.0000E+00  0.0000E+00  0.0000E+00  0.0000E+00  0.0000E+00  0.0000E+00  0.0000E+00  0.0000E+00  0.0000E+00
    -68.381  0.0000E+00  0.0000E+00  0.0000E+00  0.0000E+00  0.0000E+00  0.0000E+00  0.0000E+00  0.0000E+00  0.0000E+00
    -68.097  0.0000E+00  0.0000E+00  0.0000E+00  0.0000E+00  0.0000E+00  0.0000E+00  0.0000E+00  0.0000E+00  0.0000E+00
    -67.812  0.0000E+00  0.0000E+00  0.0000E+00  0.0000E+00  0.0000E+00  0.0000E+00  0.0000E+00  0.0000E+00  0.0000E+00
    -67.528  0.0000E+00  0.0000E+00  0.0000E+00  0.0000E+00  0.0000E+00  0.0000E+00  0.0000E+00  0.0000E+00  0.0000E+00
    -67.244  0.0000E+00  0.0000E+00  0.0000E+00  0.0000E+00  0.0000E+00  0.0000E+00  0.0000E+00  0.0000E+00  0.0000E+00
    -66.959  0.0000E+00  0.0000E+00  0.0000E+00  0.0000E+00  0.0000E+00  0.0000E+00  0.0000E+00  0.0000E+00  0.0000E+00
    -66.675  0.0000E+00  0.0000E+00  0.0000E+00  0.0000E+00  0.0000E+00  0.0000E+00  0.0000E+00  0.0000E+00  0.0000E+00
    -66.390  0.0000E+00  0.0000E+00  0.0000E+00  0.0000E+00  0.0000E+00  0.0000E+00  0.0000E+00  0.0000E+00  0.0000E+00
    -66.106  0.0000E+00  0.0000E+00  0.0000E+00  0.0000E+00  0.0000E+00  0.0000E+00  0.0000E+00  0.0000E+00  0.0000E+00
    -65.822  0.0000E+00  0.0000E+00  0.0000E+00  0.0000E+00  0.0000E+00  0.0000E+00  0.0000E+00  0.0000E+00  0.0000E+00
    -65.537  0.0000E+00  0.0000E+00  0.0000E+00  0.0000E+00  0.0000E+00  0.0000E+00  0.0000E+00  0.0000E+00  0.0000E+00
    -65.253  0.0000E+00  0.0000E+00  0.0000E+00  0.0000E+00  0.0000E+00  0.0000E+00  0.0000E+00  0.0000E+00  0.0000E+00
    -64.968  0.0000E+00  0.0000E+00  0.0000E+00  0.0000E+00  0.0000E+00  0.0000E+00  0.0000E+00  0.0000E+00  0.0000E+00
    -64.684  0.0000E+00  0.0000E+00  0.0000E+00  0.0000E+00  0.0000E+00  0.0000E+00  0.0000E+00  0.0000E+00  0.0000E+00
    -64.400  0.0000E+00  0.0000E+00  0.0000E+00  0.0000E+00  0.0000E+00  0.0000E+00  0.0000E+00  0.0000E+00  0.0000E+00
    -64.115  0.0000E+00  0.0000E+00  0.0000E+00  0.0000E+00  0.0000E+00  0.0000E+00  0.0000E+00  0.0000E+00  0.0000E+00
    -63.831  0.0000E+00  0.0000E+00  0.0000E+00  0.0000E+00  0.0000E+00  0.0000E+00  0.0000E+00  0.0000E+00  0.0000E+00
    -63.546  0.0000E+00  0.0000E+00  0.0000E+00  0.0000E+00  0.0000E+00  0.0000E+00  0.0000E+00  0.0000E+00  0.0000E+00
    -63.262  0.0000E+00  0.0000E+00  0.0000E+00  0.0000E+00  0.0000E+00  0.0000E+00  0.0000E+00  0.0000E+00  0.0000E+00
    -62.978  0.0000E+00  0.0000E+00  0.0000E+00  0.0000E+00  0.0000E+00  0.0000E+00  0.0000E+00  0.0000E+00  0.0000E+00
    -62.693  0.0000E+00  0.0000E+00  0.0000E+00  0.0000E+00  0.0000E+00  0.0000E+00  0.0000E+00  0.0000E+00  0.0000E+00
    -62.409  0.0000E+00  0.0000E+00  0.0000E+00  0.0000E+00  0.0000E+00  0.0000E+00  0.0000E+00  0.0000E+00  0.0000E+00
    -62.125  0.0000E+00  0.0000E+00  0.0000E+00  0.0000E+00  0.0000E+00  0.0000E+00  0.0000E+00  0.0000E+00  0.0000E+00
    -61.840  0.0000E+00  0.0000E+00  0.0000E+00  0.0000E+00  0.0000E+00  0.0000E+00  0.0000E+00  0.0000E+00  0.0000E+00
    -61.556  0.0000E+00  0.0000E+00  0.0000E+00  0.0000E+00  0.0000E+00  0.0000E+00  0.0000E+00  0.0000E+00  0.0000E+00
    -61.271  0.0000E+00  0.0000E+00  0.0000E+00  0.0000E+00  0.0000E+00  0.0000E+00  0.0000E+00  0.0000E+00  0.0000E+00
    -60.987  0.0000E+00  0.0000E+00  0.0000E+00  0.0000E+00  0.0000E+00  0.0000E+00  0.0000E+00  0.0000E+00  0.0000E+00
    -60.703  0.0000E+00  0.0000E+00  0.0000E+00  0.0000E+00  0.0000E+00  0.0000E+00  0.0000E+00  0.0000E+00  0.0000E+00
    -60.418  0.0000E+00  0.0000E+00  0.0000E+00  0.0000E+00  0.0000E+00  0.0000E+00  0.0000E+00  0.0000E+00  0.0000E+00
    -60.134  0.0000E+00  0.0000E+00  0.0000E+00  0.0000E+00  0.0000E+00  0.0000E+00  0.0000E+00  0.0000E+00  0.0000E+00
    -59.849  0.0000E+00  0.0000E+00  0.0000E+00  0.0000E+00  0.0000E+00  0.0000E+00  0.0000E+00  0.0000E+00  0.0000E+00
    -59.565  0.0000E+00  0.0000E+00  0.0000E+00  0.0000E+00  0.0000E+00  0.0000E+00  0.0000E+00  0.0000E+00  0.0000E+00
    -59.281  0.0000E+00  0.0000E+00  0.0000E+00  0.0000E+00  0.0000E+00  0.0000E+00  0.0000E+00  0.0000E+00  0.0000E+00
    -58.996  0.0000E+00  0.0000E+00  0.0000E+00  0.0000E+00  0.0000E+00  0.0000E+00  0.0000E+00  0.0000E+00  0.0000E+00
    -58.712  0.0000E+00  0.0000E+00  0.0000E+00  0.0000E+00  0.0000E+00  0.0000E+00  0.0000E+00  0.0000E+00  0.0000E+00
    -58.428  0.0000E+00  0.0000E+00  0.0000E+00  0.0000E+00  0.0000E+00  0.0000E+00  0.0000E+00  0.0000E+00  0.0000E+00
    -58.143  0.0000E+00  0.0000E+00  0.0000E+00  0.0000E+00  0.0000E+00  0.0000E+00  0.0000E+00  0.0000E+00  0.0000E+00
    -57.859  0.0000E+00  0.0000E+00  0.0000E+00  0.0000E+00  0.0000E+00  0.0000E+00  0.0000E+00  0.0000E+00  0.0000E+00
    -57.574  0.0000E+00  0.0000E+00  0.0000E+00  0.0000E+00  0.0000E+00  0.0000E+00  0.0000E+00  0.0000E+00  0.0000E+00
    -57.290  0.0000E+00  0.0000E+00  0.0000E+00  0.0000E+00  0.0000E+00  0.0000E+00  0.0000E+00  0.0000E+00  0.0000E+00
    -57.006  0.0000E+00  0.0000E+00  0.0000E+00  0.0000E+00  0.0000E+00  0.0000E+00  0.0000E+00  0.0000E+00  0.0000E+00
    -56.721  0.0000E+00  0.0000E+00  0.0000E+00  0.0000E+00  0.0000E+00  0.0000E+00  0.0000E+00  0.0000E+00  0.0000E+00
    -56.437  0.0000E+00  0.0000E+00  0.0000E+00  0.0000E+00  0.0000E+00  0.0000E+00  0.0000E+00  0.0000E+00  0.0000E+00
    -56.152  0.0000E+00  0.0000E+00  0.0000E+00  0.0000E+00  0.0000E+00  0.0000E+00  0.0000E+00  0.0000E+00  0.0000E+00
    -55.868  0.0000E+00  0.0000E+00  0.0000E+00  0.0000E+00  0.0000E+00  0.0000E+00  0.0000E+00  0.0000E+00  0.0000E+00
    -55.584  0.0000E+00  0.0000E+00  0.0000E+00  0.0000E+00  0.0000E+00  0.0000E+00  0.0000E+00  0.0000E+00  0.0000E+00
    -55.299  0.0000E+00  0.0000E+00  0.0000E+00  0.0000E+00  0.0000E+00  0.0000E+00  0.0000E+00  0.0000E+00  0.0000E+00
    -55.015  0.0000E+00  0.0000E+00  0.0000E+00  0.0000E+00  0.0000E+00  0.0000E+00  0.0000E+00  0.0000E+00  0.0000E+00
    -54.730  0.0000E+00  0.0000E+00  0.0000E+00  0.0000E+00  0.0000E+00  0.0000E+00  0.0000E+00  0.0000E+00  0.0000E+00
    -54.446  0.0000E+00  0.0000E+00  0.0000E+00  0.0000E+00  0.0000E+00  0.0000E+00  0.0000E+00  0.0000E+00  0.0000E+00
    -54.162  0.0000E+00  0.0000E+00  0.0000E+00  0.0000E+00  0.0000E+00  0.0000E+00  0.0000E+00  0.0000E+00  0.0000E+00
    -53.877  0.0000E+00  0.0000E+00  0.0000E+00  0.0000E+00  0.0000E+00  0.0000E+00  0.0000E+00  0.0000E+00  0.0000E+00
    -53.593  0.0000E+00  0.0000E+00  0.0000E+00  0.0000E+00  0.0000E+00  0.0000E+00  0.0000E+00  0.0000E+00  0.0000E+00
    -53.309  0.0000E+00  0.0000E+00  0.0000E+00  0.0000E+00  0.0000E+00  0.0000E+00  0.0000E+00  0.0000E+00  0.0000E+00
    -53.024  0.0000E+00  0.0000E+00  0.0000E+00  0.0000E+00  0.0000E+00  0.0000E+00  0.0000E+00  0.0000E+00  0.0000E+00
    -52.740  0.0000E+00  0.0000E+00  0.0000E+00  0.0000E+00  0.0000E+00  0.0000E+00  0.0000E+00  0.0000E+00  0.0000E+00
    -52.455  0.0000E+00  0.0000E+00  0.0000E+00  0.0000E+00  0.0000E+00  0.0000E+00  0.0000E+00  0.0000E+00  0.0000E+00
    -52.171  0.0000E+00  0.0000E+00  0.0000E+00  0.0000E+00  0.0000E+00  0.0000E+00  0.0000E+00  0.0000E+00  0.0000E+00
    -51.887  0.0000E+00  0.0000E+00  0.0000E+00  0.0000E+00  0.0000E+00  0.0000E+00  0.0000E+00  0.0000E+00  0.0000E+00
    -51.602  0.0000E+00  0.0000E+00  0.0000E+00  0.0000E+00  0.0000E+00  0.0000E+00  0.0000E+00  0.0000E+00  0.0000E+00
    -51.318  0.0000E+00  0.0000E+00  0.0000E+00  0.0000E+00  0.0000E+00  0.0000E+00  0.0000E+00  0.0000E+00  0.0000E+00
    -51.033  0.0000E+00  0.0000E+00  0.0000E+00  0.0000E+00  0.0000E+00  0.0000E+00  0.0000E+00  0.0000E+00  0.0000E+00
    -50.749  0.0000E+00  0.0000E+00  0.0000E+00  0.0000E+00  0.0000E+00  0.0000E+00  0.0000E+00  0.0000E+00  0.0000E+00
    -50.465  0.0000E+00  0.0000E+00  0.0000E+00  0.0000E+00  0.0000E+00  0.0000E+00  0.0000E+00  0.0000E+00  0.0000E+00
    -50.180  0.0000E+00  0.0000E+00  0.0000E+00  0.0000E+00  0.0000E+00  0.0000E+00  0.0000E+00  0.0000E+00  0.0000E+00
    -49.896  0.0000E+00  0.0000E+00  0.0000E+00  0.0000E+00  0.0000E+00  0.0000E+00  0.0000E+00  0.0000E+00  0.0000E+00
    -49.611  0.0000E+00  0.0000E+00  0.0000E+00  0.0000E+00  0.0000E+00  0.0000E+00  0.0000E+00  0.0000E+00  0.0000E+00
    -49.327  0.0000E+00  0.0000E+00  0.0000E+00  0.0000E+00  0.0000E+00  0.0000E+00  0.0000E+00  0.0000E+00  0.0000E+00
    -49.043  0.0000E+00  0.0000E+00  0.0000E+00  0.0000E+00  0.0000E+00  0.0000E+00  0.0000E+00  0.0000E+00  0.0000E+00
    -48.758  0.0000E+00  0.0000E+00  0.0000E+00  0.0000E+00  0.0000E+00  0.0000E+00  0.0000E+00  0.0000E+00  0.0000E+00
    -48.474  0.0000E+00  0.0000E+00  0.0000E+00  0.0000E+00  0.0000E+00  0.0000E+00  0.0000E+00  0.0000E+00  0.0000E+00
    -48.190  0.0000E+00  0.0000E+00  0.0000E+00  0.0000E+00  0.0000E+00  0.0000E+00  0.0000E+00  0.0000E+00  0.0000E+00
    -47.905  0.0000E+00  0.0000E+00  0.0000E+00  0.0000E+00  0.0000E+00  0.0000E+00  0.0000E+00  0.0000E+00  0.0000E+00
    -47.621  0.0000E+00  0.0000E+00  0.0000E+00  0.0000E+00  0.0000E+00  0.0000E+00  0.0000E+00  0.0000E+00  0.0000E+00
    -47.336  0.0000E+00  0.0000E+00  0.0000E+00  0.0000E+00  0.0000E+00  0.0000E+00  0.0000E+00  0.0000E+00  0.0000E+00
    -47.052  0.0000E+00  0.0000E+00  0.0000E+00  0.0000E+00  0.0000E+00  0.0000E+00  0.0000E+00  0.0000E+00  0.0000E+00
    -46.768  0.0000E+00  0.0000E+00  0.0000E+00  0.0000E+00  0.0000E+00  0.0000E+00  0.0000E+00  0.0000E+00  0.0000E+00
    -46.483  0.0000E+00  0.0000E+00  0.0000E+00  0.0000E+00  0.0000E+00  0.0000E+00  0.0000E+00  0.0000E+00  0.0000E+00
    -46.199  0.0000E+00  0.0000E+00  0.0000E+00  0.0000E+00  0.0000E+00  0.0000E+00  0.0000E+00  0.0000E+00  0.0000E+00
    -45.914  0.0000E+00  0.0000E+00  0.0000E+00  0.0000E+00  0.0000E+00  0.0000E+00  0.0000E+00  0.0000E+00  0.0000E+00
    -45.630  0.0000E+00  0.0000E+00  0.0000E+00  0.0000E+00  0.0000E+00  0.0000E+00  0.0000E+00  0.0000E+00  0.0000E+00
    -45.346  0.0000E+00  0.0000E+00  0.0000E+00  0.0000E+00  0.0000E+00  0.0000E+00  0.0000E+00  0.0000E+00  0.0000E+00
    -45.061  0.0000E+00  0.0000E+00  0.0000E+00  0.0000E+00  0.0000E+00  0.0000E+00  0.0000E+00  0.0000E+00  0.0000E+00
    -44.777  0.0000E+00  0.0000E+00  0.0000E+00  0.0000E+00  0.0000E+00  0.0000E+00  0.0000E+00  0.0000E+00  0.0000E+00
    -44.492  0.0000E+00  0.0000E+00  0.0000E+00  0.0000E+00  0.0000E+00  0.0000E+00  0.0000E+00  0.0000E+00  0.0000E+00
    -44.208  0.0000E+00  0.0000E+00  0.0000E+00  0.0000E+00  0.0000E+00  0.0000E+00  0.0000E+00  0.0000E+00  0.0000E+00
    -43.924  0.0000E+00  0.0000E+00  0.0000E+00  0.0000E+00  0.0000E+00  0.0000E+00  0.0000E+00  0.0000E+00  0.0000E+00
    -43.639  0.0000E+00  0.0000E+00  0.0000E+00  0.0000E+00  0.0000E+00  0.0000E+00  0.0000E+00  0.0000E+00  0.0000E+00
    -43.355  0.0000E+00  0.0000E+00  0.0000E+00  0.0000E+00  0.0000E+00  0.0000E+00  0.0000E+00  0.0000E+00  0.0000E+00
    -43.071  0.0000E+00  0.0000E+00  0.0000E+00  0.0000E+00  0.0000E+00  0.0000E+00  0.0000E+00  0.0000E+00  0.0000E+00
    -42.786  0.0000E+00  0.0000E+00  0.0000E+00  0.0000E+00  0.0000E+00  0.0000E+00  0.0000E+00  0.0000E+00  0.0000E+00
    -42.502  0.0000E+00  0.0000E+00  0.0000E+00  0.0000E+00  0.0000E+00  0.0000E+00  0.0000E+00  0.0000E+00  0.0000E+00
    -42.217  0.0000E+00  0.0000E+00  0.0000E+00  0.0000E+00  0.0000E+00  0.0000E+00  0.0000E+00  0.0000E+00  0.0000E+00
    -41.933  0.0000E+00  0.0000E+00  0.0000E+00  0.0000E+00  0.0000E+00  0.0000E+00  0.0000E+00  0.0000E+00  0.0000E+00
    -41.649  0.0000E+00  0.0000E+00  0.0000E+00  0.0000E+00  0.0000E+00  0.0000E+00  0.0000E+00  0.0000E+00  0.0000E+00
    -41.364  0.0000E+00  0.0000E+00  0.0000E+00  0.0000E+00  0.0000E+00  0.0000E+00  0.0000E+00  0.0000E+00  0.0000E+00
    -41.080  0.0000E+00  0.0000E+00  0.0000E+00  0.0000E+00  0.0000E+00  0.0000E+00  0.0000E+00  0.0000E+00  0.0000E+00
    -40.795  0.0000E+00  0.0000E+00  0.0000E+00  0.0000E+00  0.0000E+00  0.0000E+00  0.0000E+00  0.0000E+00  0.0000E+00
    -40.511  0.0000E+00  0.0000E+00  0.0000E+00  0.0000E+00  0.0000E+00  0.0000E+00  0.0000E+00  0.0000E+00  0.0000E+00
    -40.227  0.0000E+00  0.0000E+00  0.0000E+00  0.0000E+00  0.0000E+00  0.0000E+00  0.0000E+00  0.0000E+00  0.0000E+00
    -39.942  0.0000E+00  0.0000E+00  0.0000E+00  0.0000E+00  0.0000E+00  0.0000E+00  0.0000E+00  0.0000E+00  0.0000E+00
    -39.658  0.0000E+00  0.0000E+00  0.0000E+00  0.0000E+00  0.0000E+00  0.0000E+00  0.0000E+00  0.0000E+00  0.0000E+00
    -39.374  0.0000E+00  0.0000E+00  0.0000E+00  0.0000E+00  0.0000E+00  0.0000E+00  0.0000E+00  0.0000E+00  0.0000E+00
    -39.089  0.0000E+00  0.0000E+00  0.0000E+00  0.0000E+00  0.0000E+00  0.0000E+00  0.0000E+00  0.0000E+00  0.0000E+00
    -38.805  0.0000E+00  0.0000E+00  0.0000E+00  0.0000E+00  0.0000E+00  0.0000E+00  0.0000E+00  0.0000E+00  0.0000E+00
    -38.520  0.0000E+00  0.0000E+00  0.0000E+00  0.0000E+00  0.0000E+00  0.0000E+00  0.0000E+00  0.0000E+00  0.0000E+00
    -38.236  0.0000E+00  0.0000E+00  0.0000E+00  0.0000E+00  0.0000E+00  0.0000E+00  0.0000E+00  0.0000E+00  0.0000E+00
    -37.952  0.0000E+00  0.0000E+00  0.0000E+00  0.0000E+00  0.0000E+00  0.0000E+00  0.0000E+00  0.0000E+00  0.0000E+00
    -37.667  0.0000E+00  0.0000E+00  0.0000E+00  0.0000E+00  0.0000E+00  0.0000E+00  0.0000E+00  0.0000E+00  0.0000E+00
    -37.383  0.0000E+00  0.0000E+00  0.0000E+00  0.0000E+00  0.0000E+00  0.0000E+00  0.0000E+00  0.0000E+00  0.0000E+00
    -37.098  0.0000E+00  0.0000E+00  0.0000E+00  0.0000E+00  0.0000E+00  0.0000E+00  0.0000E+00  0.0000E+00  0.0000E+00
    -36.814  0.0000E+00  0.0000E+00  0.0000E+00  0.0000E+00  0.0000E+00  0.0000E+00  0.0000E+00  0.0000E+00  0.0000E+00
    -36.530  0.0000E+00  0.0000E+00  0.0000E+00  0.0000E+00  0.0000E+00  0.0000E+00  0.0000E+00  0.0000E+00  0.0000E+00
    -36.245  0.0000E+00  0.0000E+00  0.0000E+00  0.0000E+00  0.0000E+00  0.0000E+00  0.0000E+00  0.0000E+00  0.0000E+00
    -35.961  0.0000E+00  0.0000E+00  0.0000E+00  0.0000E+00  0.0000E+00  0.0000E+00  0.0000E+00  0.0000E+00  0.0000E+00
    -35.676  0.0000E+00  0.0000E+00  0.0000E+00  0.0000E+00  0.0000E+00  0.0000E+00  0.0000E+00  0.0000E+00  0.0000E+00
    -35.392  0.0000E+00  0.0000E+00  0.0000E+00  0.0000E+00  0.0000E+00  0.0000E+00  0.0000E+00  0.0000E+00  0.0000E+00
    -35.108  0.0000E+00  0.0000E+00  0.0000E+00  0.0000E+00  0.0000E+00  0.0000E+00  0.0000E+00  0.0000E+00  0.0000E+00
    -34.823  0.0000E+00  0.0000E+00  0.0000E+00  0.0000E+00  0.0000E+00  0.0000E+00  0.0000E+00  0.0000E+00  0.0000E+00
    -34.539  0.0000E+00  0.0000E+00  0.0000E+00  0.0000E+00  0.0000E+00  0.0000E+00  0.0000E+00  0.0000E+00  0.0000E+00
    -34.255  0.0000E+00  0.0000E+00  0.0000E+00  0.0000E+00  0.0000E+00  0.0000E+00  0.0000E+00  0.0000E+00  0.0000E+00
    -33.970  0.0000E+00  0.0000E+00  0.0000E+00  0.0000E+00  0.0000E+00  0.0000E+00  0.0000E+00  0.0000E+00  0.0000E+00
    -33.686  0.0000E+00  0.0000E+00  0.0000E+00  0.0000E+00  0.0000E+00  0.0000E+00  0.0000E+00  0.0000E+00  0.0000E+00
    -33.401  0.0000E+00  0.0000E+00  0.0000E+00  0.0000E+00  0.0000E+00  0.0000E+00  0.0000E+00  0.0000E+00  0.0000E+00
    -33.117  0.0000E+00  0.0000E+00  0.0000E+00  0.0000E+00  0.0000E+00  0.0000E+00  0.0000E+00  0.0000E+00  0.0000E+00
    -32.833  0.0000E+00  0.0000E+00  0.0000E+00  0.0000E+00  0.0000E+00  0.0000E+00  0.0000E+00  0.0000E+00  0.0000E+00
    -32.548  0.0000E+00  0.0000E+00  0.0000E+00  0.0000E+00  0.0000E+00  0.0000E+00  0.0000E+00  0.0000E+00  0.0000E+00
    -32.264  0.0000E+00  0.0000E+00  0.0000E+00  0.0000E+00  0.0000E+00  0.0000E+00  0.0000E+00  0.0000E+00  0.0000E+00
    -31.979  0.0000E+00  0.0000E+00  0.0000E+00  0.0000E+00  0.0000E+00  0.0000E+00  0.0000E+00  0.0000E+00  0.0000E+00
    -31.695  0.0000E+00  0.0000E+00  0.0000E+00  0.0000E+00  0.0000E+00  0.0000E+00  0.0000E+00  0.0000E+00  0.0000E+00
    -31.411  0.0000E+00  0.0000E+00  0.0000E+00  0.0000E+00  0.0000E+00  0.0000E+00  0.0000E+00  0.0000E+00  0.0000E+00