       N       E                     dE             d eps       ncg     rms          rms(c)
DAV:   1     0.826085852861E+04    0.82609E+04   -0.64952E+05  6304   0.139E+03
DAV:   2     0.989163866264E+02   -0.81619E+04   -0.79694E+04  5376   0.464E+02
DAV:   3    -0.260422502222E+03   -0.35934E+03   -0.35294E+03  5520   0.119E+02
DAV:   4    -0.266858643945E+03   -0.64361E+01   -0.64214E+01  5328   0.164E+01
DAV:   5    -0.267107541761E+03   -0.24890E+00   -0.24885E+00  6224   0.293E+00    0.716E+01
DAV:   6    -0.246262062741E+03    0.20845E+02   -0.55493E+02  5408   0.699E+01    0.765E+01
DAV:   7    -0.222611769300E+03    0.23650E+02   -0.72690E+01  5560   0.335E+01    0.328E+01
DAV:   8    -0.221951174517E+03    0.66059E+00   -0.28367E+01  5440   0.138E+01    0.135E+01
DAV:   9    -0.221180840035E+03    0.77033E+00   -0.37796E+00  5456   0.112E+01    0.872E+00
DAV:  10    -0.221302152832E+03   -0.12131E+00   -0.24532E+00  5544   0.165E+01    0.577E+00
DAV:  11    -0.221172417683E+03    0.12974E+00   -0.75772E-01  5720   0.168E+01    0.464E+00
DAV:  12    -0.220759848294E+03    0.41257E+00   -0.32610E-01  6480   0.806E+00    0.127E+00
DAV:  13    -0.220769499922E+03   -0.96516E-02   -0.30684E-01  5520   0.252E+00    0.136E+00
DAV:  14    -0.220767448396E+03    0.20515E-02   -0.52250E-02  5344   0.109E+00    0.792E-01
DAV:  15    -0.220767186804E+03    0.26159E-03   -0.10320E-02  5288   0.402E-01    0.593E-01
DAV:  16    -0.220766622424E+03    0.56438E-03   -0.35000E-03  5248   0.445E-01    0.401E-01
DAV:  17    -0.220767147033E+03   -0.52461E-03   -0.18998E-03  5360   0.305E-01    0.231E-01
DAV:  18    -0.220767494598E+03   -0.34757E-03   -0.11056E-03  5208   0.260E-01    0.167E-01
DAV:  19    -0.220767869547E+03   -0.37495E-03   -0.50778E-04  5056   0.109E-01    0.955E-02
DAV:  20    -0.220768249936E+03   -0.38039E-03   -0.11695E-04  4664   0.537E-02    0.608E-02
DAV:  21    -0.220769498554E+03   -0.12486E-02   -0.24407E-04  4896   0.651E-02    0.397E-02
DAV:  22    -0.220770191991E+03   -0.69344E-03   -0.71146E-05  4592   0.425E-02    0.284E-02
DAV:  23    -0.220770561455E+03   -0.36946E-03   -0.31917E-05  3728   0.252E-02    0.262E-02
DAV:  24    -0.220770953108E+03   -0.39165E-03   -0.33802E-05  3688   0.218E-02    0.297E-02
DAV:  25    -0.220771166784E+03   -0.21368E-03   -0.14922E-05  3192   0.153E-02    0.149E-02
DAV:  26    -0.220771279899E+03   -0.11312E-03   -0.61775E-06  3040   0.101E-02    0.116E-02
DAV:  27    -0.220771373857E+03   -0.93958E-04   -0.47343E-06  3056   0.876E-03    0.561E-03
DAV:  28    -0.220771415628E+03   -0.41771E-04   -0.22144E-06  3032   0.519E-03    0.379E-03
DAV:  29    -0.220771438786E+03   -0.23158E-04   -0.80427E-07  2960   0.331E-03    0.242E-03
DAV:  30    -0.220771459959E+03   -0.21173E-04   -0.39530E-07  2952   0.258E-03    0.224E-03
DAV:  31    -0.220771470961E+03   -0.11002E-04   -0.21808E-07  2920   0.177E-03    0.193E-03
DAV:  32    -0.220771475706E+03   -0.47453E-05   -0.10656E-07  2888   0.131E-03
   1 F= -.24970748E+03 E0= -.24970324E+03  d E =-.249707E+03
       N       E                     dE             d eps       ncg     rms          rms(c)
DAV:   1    -0.197327648273E+03    0.23444E+02   -0.68974E+02  6456   0.188E+02    0.318E+01
DAV:   2    -0.221897471359E+03   -0.24570E+02   -0.25402E+02  5320   0.339E+01    0.151E+01
DAV:   3    -0.222275050138E+03   -0.37758E+00   -0.12926E+01  6744   0.200E+01    0.109E+01
DAV:   4    -0.222176843066E+03    0.98207E-01   -0.16752E+00  5672   0.134E+01    0.902E+00
DAV:   5    -0.222109661375E+03    0.67182E-01   -0.41470E-01  6080   0.927E+00    0.769E+00
DAV:   6    -0.221986698366E+03    0.12296E+00   -0.30838E-01  5880   0.407E+00    0.528E+00
DAV:   7    -0.221973875771E+03    0.12823E-01   -0.10838E-01  6800   0.300E+00    0.192E+00
DAV:   8    -0.221972284483E+03    0.15913E-02   -0.11974E-01  5440   0.200E+00    0.985E-01
DAV:   9    -0.221973708077E+03   -0.14236E-02   -0.24770E-02  5512   0.113E+00    0.827E-01
DAV:  10    -0.221974447906E+03   -0.73983E-03   -0.83558E-03  5368   0.240E-01    0.741E-01
DAV:  11    -0.221974306249E+03    0.14166E-03   -0.24756E-04  5872   0.550E-02    0.717E-01
DAV:  12    -0.221973410202E+03    0.89605E-03   -0.54204E-04  7440   0.259E-01    0.458E-01
DAV:  13    -0.221972855975E+03    0.55423E-03   -0.11453E-03  6416   0.296E-01    0.250E-01
DAV:  14    -0.221972775388E+03    0.80588E-04   -0.68287E-04  6120   0.146E-01    0.198E-01
DAV:  15    -0.221972748576E+03    0.26812E-04   -0.15085E-04  5096   0.522E-02    0.171E-01
DAV:  16    -0.221972726265E+03    0.22311E-04   -0.36467E-05  4464   0.372E-02    0.139E-01
DAV:  17    -0.221972710053E+03    0.16212E-04   -0.24767E-05  3792   0.256E-02    0.900E-02
DAV:  18    -0.221972702754E+03    0.72990E-05   -0.52405E-05  4352   0.364E-02
   2 F= -.25086147E+03 E0= -.25085665E+03  d E =-.115399E+01
       N       E                     dE             d eps       ncg     rms          rms(c)
DAV:   1    -0.219451984566E+03    0.25207E+01   -0.81007E+01  6488   0.702E+01    0.548E+00
DAV:   2    -0.222007095691E+03   -0.25551E+01   -0.26291E+01  5192   0.957E+00    0.247E+00
DAV:   3    -0.222064363176E+03   -0.57267E-01   -0.84341E-01  6752   0.261E+00    0.189E+00
DAV:   4    -0.222062285043E+03    0.20781E-02   -0.61711E-02  5544   0.170E+00    0.160E+00
DAV:   5    -0.222060233708E+03    0.20513E-02   -0.14862E-02  5504   0.130E+00    0.130E+00
DAV:   6    -0.222060837800E+03   -0.60409E-03   -0.69454E-03  5600   0.151E+00    0.939E-01
DAV:   7    -0.222059543649E+03    0.12942E-02   -0.73081E-03  7560   0.137E+00    0.348E-01
DAV:   8    -0.222057583993E+03    0.19597E-02   -0.45492E-03  6608   0.635E-01    0.207E-01
DAV:   9    -0.222057820167E+03   -0.23617E-03   -0.23271E-03  5128   0.134E-01    0.194E-01
DAV:  10    -0.222057834124E+03   -0.13957E-04   -0.16094E-04  5352   0.356E-02    0.196E-01
DAV:  11    -0.222057844867E+03   -0.10743E-04   -0.32686E-06  3168   0.161E-02    0.201E-01
DAV:  12    -0.222057809849E+03    0.35018E-04   -0.57334E-05  4920   0.481E-02    0.167E-01
DAV:  13    -0.222057950737E+03   -0.14089E-03   -0.11399E-03  5256   0.203E-01    0.278E-01
DAV:  14    -0.222057936636E+03    0.14101E-04   -0.16522E-04  4768   0.467E-02    0.265E-01
DAV:  15    -0.222057899173E+03    0.37464E-04   -0.17956E-05  3064   0.291E-02    0.251E-01
DAV:  16    -0.222057920133E+03   -0.20961E-04   -0.12706E-05  2904   0.243E-02    0.280E-01
DAV:  17    -0.222057930032E+03   -0.98990E-05   -0.60946E-06  2896   0.193E-02
   3 F= -.25093069E+03 E0= -.25092564E+03  d E =-.122320E+01
       N       E                     dE             d eps       ncg     rms          rms(c)
DAV:   1    -0.220242537769E+03    0.18154E+01   -0.44872E+01  6816   0.637E+01    0.455E+00
DAV:   2    -0.222107969929E+03   -0.18654E+01   -0.19161E+01  5176   0.792E+00    0.189E+00
DAV:   3    -0.222159787656E+03   -0.51818E-01   -0.58654E-01  7904   0.315E+00    0.170E+00
DAV:   4    -0.222152067951E+03    0.77197E-02   -0.50329E-02  5576   0.228E+00    0.140E+00
DAV:   5    -0.222148387988E+03    0.36800E-02   -0.95412E-03  5520   0.117E+00    0.117E+00
DAV:   6    -0.222147535302E+03    0.85269E-03   -0.54809E-03  5696   0.409E-01    0.979E-01
DAV:   7    -0.222147515711E+03    0.19591E-04   -0.22479E-03  6256   0.448E-01    0.425E-01
DAV:   8    -0.222147762934E+03   -0.24722E-03   -0.28559E-03  5672   0.322E-01    0.169E-01
DAV:   9    -0.222147879652E+03   -0.11672E-03   -0.74736E-04  6120   0.140E-01    0.138E-01
DAV:  10    -0.222147866664E+03    0.12988E-04   -0.16922E-04  5024   0.622E-02    0.979E-02
DAV:  11    -0.222147846746E+03    0.19918E-04   -0.41029E-05  4688   0.784E-02    0.482E-02
DAV:  12    -0.222147849770E+03   -0.30238E-05   -0.39972E-05  4336   0.479E-02
   4 F= -.25100027E+03 E0= -.25099458E+03  d E =-.695821E-01
       N       E                     dE             d eps       ncg     rms          rms(c)
DAV:   1    -0.221942701623E+03    0.20515E+00   -0.54643E+00  6840   0.222E+01    0.138E+00
DAV:   2    -0.222159759770E+03   -0.21706E+00   -0.22315E+00  5064   0.269E+00    0.601E-01
DAV:   3    -0.222164849723E+03   -0.50900E-02   -0.60921E-02  6816   0.721E-01    0.453E-01
DAV:   4    -0.222164515564E+03    0.33416E-03   -0.31714E-03  5480   0.453E-01    0.398E-01
DAV:   5    -0.222164177715E+03    0.33785E-03   -0.48331E-04  5448   0.312E-01    0.337E-01
DAV:   6    -0.222164114312E+03    0.63402E-04   -0.23528E-04  6480   0.149E-01    0.274E-01
DAV:   7    -0.222164192606E+03   -0.78294E-04   -0.41065E-04  4960   0.152E-01    0.879E-02
DAV:   8    -0.222164209742E+03   -0.17136E-04   -0.22545E-04  6424   0.744E-02    0.375E-02
DAV:   9    -0.222164213831E+03   -0.40885E-05   -0.29698E-05  3672   0.293E-02
   5 F= -.25100957E+03 E0= -.25100368E+03  d E =-.788770E-01
       N       E                     dE             d eps       ncg     rms          rms(c)
DAV:   1    -0.221272496166E+03    0.89171E+00   -0.21713E+01  6856   0.442E+01    0.295E+00
DAV:   2    -0.222155953011E+03   -0.88346E+00   -0.90777E+00  5080   0.541E+00    0.126E+00
DAV:   3    -0.222179187045E+03   -0.23234E-01   -0.26921E-01  7648   0.188E+00    0.105E+00
DAV:   4    -0.222176968293E+03    0.22188E-02   -0.17711E-02  5472   0.141E+00    0.911E-01
DAV:   5    -0.222174636643E+03    0.23317E-02   -0.32952E-03  5488   0.756E-01    0.743E-01
DAV:   6    -0.222174395445E+03    0.24120E-03   -0.20234E-03  5824   0.253E-01    0.621E-01
DAV:   7    -0.222174643582E+03   -0.24814E-03   -0.10713E-03  5376   0.278E-01    0.267E-01
DAV:   8    -0.222174701856E+03   -0.58274E-04   -0.10859E-03  6024   0.195E-01    0.103E-01
DAV:   9    -0.222174741311E+03   -0.39455E-04   -0.27906E-04  6656   0.894E-02    0.756E-02
DAV:  10    -0.222174741939E+03   -0.62818E-06   -0.79216E-05  4928   0.401E-02
   6 F= -.25100593E+03 E0= -.25099954E+03  d E =-.752421E-01
       N       E                     dE             d eps       ncg     rms          rms(c)
DAV:   1    -0.221702871630E+03    0.47187E+00   -0.11410E+01  6840   0.320E+01    0.207E+00
DAV:   2    -0.222160198625E+03   -0.45733E+00   -0.47033E+00  5056   0.390E+00    0.872E-01
DAV:   3    -0.222171261963E+03   -0.11063E-01   -0.13493E-01  6840   0.104E+00    0.670E-01
DAV:   4    -0.222170408209E+03    0.85375E-03   -0.72371E-03  5408   0.513E-01    0.575E-01
DAV:   5    -0.222169997322E+03    0.41089E-03   -0.82129E-04  5320   0.196E-01    0.491E-01
DAV:   6    -0.222170104314E+03   -0.10699E-03   -0.29271E-04  5560   0.233E-01    0.355E-01
DAV:   7    -0.222170163748E+03   -0.59434E-04   -0.54358E-04  7080   0.301E-01    0.146E-01
DAV:   8    -0.222170120497E+03    0.43252E-04   -0.44784E-04  6720   0.168E-01    0.506E-02
DAV:   9    -0.222170142642E+03   -0.22145E-04   -0.18162E-04  5144   0.450E-02    0.460E-02
DAV:  10    -0.222170139444E+03    0.31977E-05   -0.18042E-05  2976   0.253E-02
   7 F= -.25101158E+03 E0= -.25100557E+03  d E =-.808873E-01
       N       E                     dE             d eps       ncg     rms          rms(c)
DAV:   1    -0.220470275170E+03    0.16999E+01   -0.45864E+01  6640   0.605E+01    0.461E+00
DAV:   2    -0.222209977808E+03   -0.17397E+01   -0.17852E+01  5160   0.773E+00    0.188E+00
DAV:   3    -0.222263367167E+03   -0.53389E-01   -0.58335E-01  7504   0.296E+00    0.169E+00
DAV:   4    -0.222255571103E+03    0.77961E-02   -0.43276E-02  5408   0.230E+00    0.142E+00
DAV:   5    -0.222250975980E+03    0.45951E-02   -0.10313E-02  5408   0.109E+00    0.120E+00
DAV:   6    -0.222250864829E+03    0.11115E-03   -0.48519E-03  5536   0.305E-01    0.103E+00
DAV:   7    -0.222251739539E+03   -0.87471E-03   -0.10598E-03  7288   0.314E-01    0.570E-01
DAV:   8    -0.222252680078E+03   -0.94054E-03   -0.22979E-03  5776   0.383E-01    0.153E-01
DAV:   9    -0.222252826088E+03   -0.14601E-03   -0.93821E-04  5304   0.118E-01    0.117E-01
DAV:  10    -0.222252811173E+03    0.14915E-04   -0.96405E-05  5088   0.587E-02    0.901E-02
DAV:  11    -0.222252831380E+03   -0.20207E-04   -0.55494E-05  4608   0.667E-02    0.571E-02
DAV:  12    -0.222252836106E+03   -0.47255E-05   -0.36854E-05  4352   0.446E-02
   8 F= -.25106583E+03 E0= -.25105887E+03  d E =-.542502E-01
       N       E                     dE             d eps       ncg     rms          rms(c)
DAV:   1    -0.221965973041E+03    0.28686E+00   -0.84668E+00  6608   0.258E+01    0.166E+00
DAV:   2    -0.222271171557E+03   -0.30520E+00   -0.31358E+00  5064   0.322E+00    0.686E-01
DAV:   3    -0.222279719767E+03   -0.85482E-02   -0.88802E-02  7128   0.907E-01    0.573E-01
DAV:   4    -0.222278657633E+03    0.10621E-02   -0.46058E-03  5328   0.713E-01    0.498E-01
DAV:   5    -0.222278006043E+03    0.65159E-03   -0.92577E-04  5376   0.386E-01    0.413E-01
DAV:   6    -0.222278160688E+03   -0.15464E-03   -0.53779E-04  5528   0.150E-01    0.303E-01
DAV:   7    -0.222278636550E+03   -0.47586E-03   -0.50228E-04  5216   0.183E-01    0.862E-02
DAV:   8    -0.222278697884E+03   -0.61334E-04   -0.29306E-04  6272   0.670E-02    0.440E-02
DAV:   9    -0.222278698521E+03   -0.63749E-06   -0.47579E-05  4896   0.507E-02
   9 F= -.25107950E+03 E0= -.25107215E+03  d E =-.679243E-01
       N       E                     dE             d eps       ncg     rms          rms(c)
DAV:   1    -0.221032501166E+03    0.12462E+01   -0.33575E+01  6616   0.516E+01    0.371E+00
DAV:   2    -0.222283136574E+03   -0.12506E+01   -0.12843E+01  5104   0.654E+00    0.152E+00
DAV:   3    -0.222322950432E+03   -0.39814E-01   -0.41798E-01  7560   0.242E+00    0.137E+00
DAV:   4    -0.222317292352E+03    0.56581E-02   -0.31903E-02  5432   0.192E+00    0.115E+00
DAV:   5    -0.222313877200E+03    0.34152E-02   -0.69624E-03  5368   0.913E-01    0.967E-01
DAV:   6    -0.222313936451E+03   -0.59251E-04   -0.33439E-03  5480   0.265E-01    0.811E-01
DAV:   7    -0.222315201804E+03   -0.12654E-02   -0.97220E-04  7000   0.291E-01    0.389E-01
DAV:   8    -0.222315977759E+03   -0.77595E-03   -0.16723E-03  5656   0.286E-01    0.109E-01
DAV:   9    -0.222316038223E+03   -0.60464E-04   -0.51841E-04  5160   0.827E-02    0.891E-02
DAV:  10    -0.222316028591E+03    0.96315E-05   -0.57831E-05  4984   0.470E-02
  10 F= -.25109238E+03 E0= -.25108426E+03  d E =-.808037E-01
       N       E                     dE             d eps       ncg     rms          rms(c)
DAV:   1    -0.221974647367E+03    0.34139E+00   -0.20772E+01  6136   0.263E+01    0.164E+00
DAV:   2    -0.222359949574E+03   -0.38530E+00   -0.39426E+00  5104   0.396E+00    0.770E-01
DAV:   3    -0.222366601808E+03   -0.66522E-02   -0.89723E-02  6760   0.904E-01    0.559E-01
DAV:   4    -0.222366271229E+03    0.33058E-03   -0.55833E-03  5624   0.598E-01    0.496E-01
DAV:   5    -0.222365730041E+03    0.54119E-03   -0.84343E-04  5872   0.493E-01    0.417E-01
DAV:   6    -0.222365281005E+03    0.44904E-03   -0.96470E-04  7552   0.376E-01    0.239E-01
DAV:   7    -0.222365158472E+03    0.12253E-03   -0.11652E-03  6528   0.237E-01    0.710E-02
DAV:   8    -0.222365175906E+03   -0.17434E-04   -0.33466E-04  5352   0.961E-02    0.493E-02
DAV:   9    -0.222365182310E+03   -0.64038E-05   -0.64423E-05  5064   0.303E-02
  11 F= -.25111852E+03 E0= -.25110974E+03  d E =-.261396E-01
       N       E                     dE             d eps       ncg     rms          rms(c)
DAV:   1    -0.222326154870E+03    0.39021E-01   -0.28890E+00  6080   0.978E+00    0.589E-01
DAV:   2    -0.222379697498E+03   -0.53543E-01   -0.54746E-01  4976   0.148E+00    0.289E-01
DAV:   3    -0.222380609791E+03   -0.91229E-03   -0.12627E-02  6584   0.287E-01    0.200E-01
DAV:   4    -0.222380526743E+03    0.83047E-04   -0.56608E-04  5584   0.134E-01    0.175E-01
DAV:   5    -0.222380463063E+03    0.63681E-04   -0.10209E-04  5728   0.107E-01    0.131E-01
DAV:   6    -0.222380479325E+03   -0.16262E-04   -0.11317E-04  5912   0.154E-01    0.861E-02
DAV:   7    -0.222380422814E+03    0.56511E-04   -0.11196E-04  7024   0.140E-01    0.236E-02
DAV:   8    -0.222380420181E+03    0.26326E-05   -0.44130E-05  4632   0.467E-02
  12 F= -.25112517E+03 E0= -.25111615E+03  d E =-.327940E-01
       N       E                     dE             d eps       ncg     rms          rms(c)
DAV:   1    -0.222189248233E+03    0.19117E+00   -0.11561E+01  6104   0.196E+01    0.120E+00
DAV:   2    -0.222403603441E+03   -0.21436E+00   -0.21924E+00  5104   0.295E+00    0.571E-01
DAV:   3    -0.222407375059E+03   -0.37716E-02   -0.50275E-02  6832   0.712E-01    0.422E-01
DAV:   4    -0.222407131882E+03    0.24318E-03   -0.28788E-03  5592   0.492E-01    0.369E-01
DAV:   5    -0.222406789384E+03    0.34250E-03   -0.46500E-04  5952   0.375E-01    0.304E-01
DAV:   6    -0.222406540395E+03    0.24899E-03   -0.64590E-04  7240   0.281E-01    0.170E-01
DAV:   7    -0.222406493142E+03    0.47253E-04   -0.62389E-04  6680   0.169E-01    0.556E-02
DAV:   8    -0.222406488870E+03    0.42724E-05   -0.16621E-04  5296   0.772E-02    0.335E-02
DAV:   9    -0.222406492702E+03   -0.38324E-05   -0.34013E-05  4312   0.214E-02
  13 F= -.25113408E+03 E0= -.25112460E+03  d E =-.417027E-01
       N       E                     dE             d eps       ncg     rms          rms(c)
DAV:   1    -0.221567975651E+03    0.83851E+00   -0.46281E+01  6120   0.391E+01    0.252E+00
DAV:   2    -0.222430101470E+03   -0.86213E+00   -0.88208E+00  5128   0.591E+00    0.116E+00
DAV:   3    -0.222445499296E+03   -0.15398E-01   -0.20566E-01  6808   0.152E+00    0.884E-01
DAV:   4    -0.222444657655E+03    0.84164E-03   -0.14337E-02  5568   0.111E+00    0.779E-01
DAV:   5    -0.222442939883E+03    0.17178E-02   -0.23099E-03  5640   0.773E-01    0.645E-01
DAV:   6    -0.222442155304E+03    0.78458E-03   -0.22244E-03  6952   0.476E-01    0.408E-01
DAV:   7    -0.222441925475E+03    0.22983E-03   -0.27370E-03  6056   0.352E-01    0.126E-01
DAV:   8    -0.222441939868E+03   -0.14394E-04   -0.88666E-04  5728   0.168E-01    0.784E-02
DAV:   9    -0.222441961566E+03   -0.21697E-04   -0.14531E-04  5328   0.517E-02    0.643E-02
DAV:  10    -0.222441956332E+03    0.52336E-05   -0.40696E-05  4520   0.462E-02
  14 F= -.25113523E+03 E0= -.25112484E+03  d E =-.428535E-01
       N       E                     dE             d eps       ncg     rms          rms(c)
DAV:   1    -0.221953179388E+03    0.48878E+00   -0.24509E+01  6088   0.284E+01    0.180E+00
DAV:   2    -0.222411829060E+03   -0.45865E+00   -0.46999E+00  5152   0.430E+00    0.847E-01
DAV:   3    -0.222419961437E+03   -0.81324E-02   -0.10669E-01  6776   0.882E-01    0.610E-01
DAV:   4    -0.222419287552E+03    0.67388E-03   -0.51525E-03  5592   0.453E-01    0.541E-01
DAV:   5    -0.222418828509E+03    0.45904E-03   -0.75906E-04  6160   0.339E-01    0.432E-01
DAV:   6    -0.222418990307E+03   -0.16180E-03   -0.72635E-04  6256   0.468E-01    0.340E-01
DAV:   7    -0.222418325066E+03    0.66524E-03   -0.14066E-03  7848   0.400E-01    0.705E-02
DAV:   8    -0.222418367818E+03   -0.42753E-04   -0.57996E-04  6112   0.105E-01    0.463E-02
DAV:   9    -0.222418373256E+03   -0.54373E-05   -0.81755E-05  5200   0.334E-02
  15 F= -.25113663E+03 E0= -.25112689E+03  d E =-.442476E-01
       N       E                     dE             d eps       ncg     rms          rms(c)
DAV:   1    -0.221967471042E+03    0.45090E+00   -0.11372E+01  6840   0.326E+01    0.204E+00
DAV:   2    -0.222426939511E+03   -0.45947E+00   -0.47225E+00  5072   0.398E+00    0.888E-01
DAV:   3    -0.222437616277E+03   -0.10677E-01   -0.13152E-01  7568   0.118E+00    0.706E-01
DAV:   4    -0.222437075590E+03    0.54069E-03   -0.67117E-03  5512   0.857E-01    0.616E-01
DAV:   5    -0.222435938734E+03    0.11369E-02   -0.11961E-03  5560   0.514E-01    0.508E-01
DAV:   6    -0.222435734320E+03    0.20441E-03   -0.82543E-04  6520   0.198E-01    0.397E-01
DAV:   7    -0.222435585770E+03    0.14855E-03   -0.82108E-04  5128   0.221E-01    0.141E-01
DAV:   8    -0.222435565364E+03    0.20406E-04   -0.44032E-04  6520   0.105E-01    0.680E-02
DAV:   9    -0.222435572458E+03   -0.70946E-05   -0.70348E-05  5656   0.509E-02
  16 F= -.25114326E+03 E0= -.25113326E+03  d E =-.663262E-02
       N       E                     dE             d eps       ncg     rms          rms(c)
DAV:   1    -0.222431431194E+03    0.41342E-02   -0.79051E-02  6704   0.271E+00    0.179E-01
DAV:   2    -0.222434572619E+03   -0.31414E-02   -0.32352E-02  4848   0.339E-01    0.720E-02
DAV:   3    -0.222434656441E+03   -0.83822E-04   -0.93617E-04  5296   0.150E-01    0.580E-02
DAV:   4    -0.222434640752E+03    0.15689E-04   -0.72827E-05  5000   0.891E-02    0.446E-02
DAV:   5    -0.222434635852E+03    0.49006E-05   -0.95141E-06  3056   0.279E-02
  17 F= -.25114320E+03 E0= -.25113326E+03  d E =-.657427E-02
       N       E                     dE             d eps       ncg     rms          rms(c)
DAV:   1    -0.222424991884E+03    0.96489E-02   -0.19608E-01  6696   0.429E+00    0.230E-01
DAV:   2    -0.222432869476E+03   -0.78776E-02   -0.80455E-02  4816   0.517E-01    0.131E-01
DAV:   3    -0.222433007925E+03   -0.13845E-03   -0.20685E-03  6456   0.133E-01    0.958E-02
DAV:   4    -0.222432995540E+03    0.12385E-04   -0.10474E-04  5152   0.589E-02    0.852E-02
DAV:   5    -0.222432986542E+03    0.89977E-05   -0.97449E-06  3264   0.385E-02
  18 F= -.25114294E+03 E0= -.25113303E+03  d E =-.631176E-02
       N       E                     dE             d eps       ncg     rms          rms(c)
DAV:   1    -0.222307951070E+03    0.12504E+00   -0.33057E+00  6712   0.174E+01    0.110E+00
DAV:   2    -0.222437472196E+03   -0.12952E+00   -0.13292E+00  4992   0.210E+00    0.447E-01
DAV:   3    -0.222440845303E+03   -0.33731E-02   -0.36870E-02  7888   0.666E-01    0.358E-01
DAV:   4    -0.222440555175E+03    0.29013E-03   -0.22832E-03  5584   0.485E-01    0.309E-01
DAV:   5    -0.222440280268E+03    0.27491E-03   -0.35678E-04  5472   0.236E-01    0.251E-01
DAV:   6    -0.222440240009E+03    0.40259E-04   -0.25254E-04  6256   0.112E-01    0.170E-01
DAV:   7    -0.222440223488E+03    0.16520E-04   -0.24183E-04  5064   0.128E-01    0.504E-02
DAV:   8    -0.222440229896E+03   -0.64073E-05   -0.12325E-04  5616   0.412E-02    0.310E-02
DAV:   9    -0.222440227356E+03    0.25399E-05   -0.80176E-06  2984   0.244E-02
  19 F= -.25114582E+03 E0= -.25113573E+03  d E =-.287713E-02
       N       E                     dE             d eps       ncg     rms          rms(c)
DAV:   1    -0.222440182983E+03    0.46912E-04   -0.16084E-04  6376   0.122E-01    0.133E-02
DAV:   2    -0.222440189087E+03   -0.61041E-05   -0.61589E-05  4344   0.221E-02
  20 F= -.25114581E+03 E0= -.25113574E+03  d E =-.286808E-02
       N       E                     dE             d eps       ncg     rms          rms(c)
DAV:   1    -0.222403389074E+03    0.36794E-01   -0.89538E-01  6872   0.977E+00    0.593E-01
DAV:   2    -0.222442552092E+03   -0.39163E-01   -0.40171E-01  4968   0.113E+00    0.259E-01
DAV:   3    -0.222443514935E+03   -0.96284E-03   -0.11208E-02  6552   0.263E-01    0.188E-01
DAV:   4    -0.222443486592E+03    0.28344E-04   -0.39585E-04  5504   0.203E-01    0.172E-01
DAV:   5    -0.222443378101E+03    0.10849E-03   -0.72650E-05  5096   0.128E-01    0.140E-01
DAV:   6    -0.222443382033E+03   -0.39323E-05   -0.71117E-05  4832   0.572E-02
  21 F= -.25114676E+03 E0= -.25113657E+03  d E =-.952188E-03
