 vasp.6.5.1 10Mar25 (build Mar 14 2026 15:48:08) complex                         
 executed on              LinuxNV date 2026.04.01  08:00:55
 running    1 mpi-ranks, with    1 threads/rank, on    1 nodes
 distrk:  each k-point on    1 cores,    1 groups
 distr:  one band on NCORE=   1 cores,    1 groups
 Offloading initialized ...    1 GPUs detected


--------------------------------------------------------------------------------------------------------


 INCAR:
   SYSTEM = Cu-Au(111) 4x4 slab relaxation
   ENCUT = 400
   EDIFF = 1E-5
   ISMEAR = 1
   SIGMA = 0.1
   LREAL = Auto
   PREC = Normal
   ALGO = Normal
   NSW = 200
   IBRION = 2
   EDIFFG = -0.02
   ISIF = 2
   IVDW = 12
   ISPIN = 1
   LORBIT = 11
   NCORE = 4
   LWAVE = .TRUE.
   LCHARG = .TRUE.

 POTCAR:    PAW_PBE Au 04Oct2007                  
 POTCAR:    PAW_PBE Cu_pv 06Sep2000               
 POTCAR:    PAW_PBE Au 04Oct2007                  
   SHA256 =  d0044ae04e2bdce24051b198fc5c053d722a5bc6fe3c3b100514a13fc5d2db88 Au/POTCAR             
   COPYR  = (c) Copyright 04Oct2007 Georg Kresse                                                    
   COPYR  = This file is part of the software VASP. Any use, copying, and all other rights are regul
   COPYR  = If you do not have a valid VASP license, you may not use, copy or distribute this file. 
   VRHFIN =Au: s1d10                                                                                
   LEXCH  = PE                                                                                      
   EATOM  =   926.0867 eV,   68.0654 Ry                                                             
                                                                                                    
   TITEL  = PAW_PBE Au 04Oct2007                                                                    
   LULTRA =        F    use ultrasoft PP ?                                                          
   IUNSCR =        1    unscreen: 0-lin 1-nonlin 2-no                                               
   RPACOR =    2.330    partial core radius                                                         
   POMASS =  196.966; ZVAL   =   11.000    mass and valenz                                          
   RCORE  =    2.500    outmost cutoff radius                                                       
   RWIGS  =    2.840; RWIGS  =    1.503    wigner-seitz radius (au A)                               
   ENMAX  =  229.943; ENMIN  =  172.457 eV                                                          
   ICORE  =        3    local potential                                                             
   LCOR   =        T    correct aug charges                                                         
   LPAW   =        T    paw PP                                                                      
   EAUG   =  356.670                                                                                
   DEXC   =    0.000                                                                                
   RMAX   =    2.562    core radius for proj-oper                                                   
   RAUG   =    1.300    factor for augmentation sphere                                              
   RDEP   =    2.598    radius for radial grids                                                     
   RDEPT  =    2.193    core radius for aug-charge                                                  
                                                                                                    
   Atomic configuration                                                                             
   16 entries                                                                                       
     n  l   j            E        occ.                                                              
     1  0  0.50    -80748.5001   2.0000                                                             
     2  0  0.50    -14244.7466   2.0000                                                             
     2  1  1.50    -12310.9591   6.0000                                                             
     3  0  0.50     -3362.1768   2.0000                                                             
     3  1  1.50     -2801.5463   6.0000                                                             
     3  2  2.50     -2203.8206  10.0000                                                             
     4  0  0.50      -729.8168   2.0000                                                             
     4  1  1.50      -546.0527   6.0000                                                             
     4  2  2.50      -325.7302  10.0000                                                             
     4  3  3.50       -81.1472  14.0000                                                             
     5  0  0.50      -108.3201   2.0000                                                             
     5  1  1.50       -59.7479   6.0000                                                             
     5  2  2.50        -6.8783  10.0000                                                             
     6  0  0.50        -5.7602   1.0000                                                             
     6  1  1.50        -6.8029   0.0000                                                             
     5  3  2.50        -1.3606   0.0000                                                             
   Description                                                                                      
     l       E           TYP  RCUT    TYP  RCUT                                                     
     2     -6.8782861     23  2.500                                                                 
     2     -8.2388687     23  2.500                                                                 
     0     -5.7601759     23  2.500                                                                 
     0     -0.8493231     23  2.500                                                                 
     1     -2.7211652     23  2.500                                                                 
     1     27.2116520     23  2.500                                                                 
     3     -1.3605826     23  2.500                                                                 
  local pseudopotential read in
  partial core-charges read in
  partial kinetic energy density read in
  atomic valenz-charges read in
  non local Contribution for L=            2  read in
    real space projection operators read in
  non local Contribution for L=            2  read in
    real space projection operators read in
  non local Contribution for L=            0  read in
    real space projection operators read in
  non local Contribution for L=            0  read in
    real space projection operators read in
  non local Contribution for L=            1  read in
    real space projection operators read in
  non local Contribution for L=            1  read in
    real space projection operators read in
    PAW grid and wavefunctions read in
 
   number of l-projection  operators is LMAX  =            6
   number of lm-projection operators is LMMAX =           18
 
 POTCAR:    PAW_PBE Cu_pv 06Sep2000               
   SHA256 =  cb7b504e2ea725fe1f25c85a9ac77d4012ce94cd394135b722c4e25ec297f1cb Cu_pv/POTCAR          
   COPYR  = (c) Copyright 06Sep2000 Georg Kresse                                                    
   COPYR  = This file is part of the software VASP. Any use, copying, and all other rights are regul
   COPYR  = If you do not have a valid VASP license, you may not use, copy or distribute this file. 
   VRHFIN =Cu: d10 p1                                                                               
   LEXCH  = PE                                                                                      
   EATOM  =  4120.1201 eV,  302.8203 Ry                                                             
                                                                                                    
   TITEL  = PAW_PBE Cu_pv 06Sep2000                                                                 
   LULTRA =        F    use ultrasoft PP ?                                                          
   IUNSCR =        1    unscreen: 0-lin 1-nonlin 2-no                                               
   RPACOR =    1.500    partial core radius                                                         
   POMASS =   63.546; ZVAL   =   17.000    mass and valenz                                          
   RCORE  =    2.000    outmost cutoff radius                                                       
   RWIGS  =    2.000; RWIGS  =    1.058    wigner-seitz radius (au A)                               
   ENMAX  =  368.648; ENMIN  =  276.486 eV                                                          
   RCLOC  =    1.304    cutoff for local pot                                                        
   LCOR   =        T    correct aug charges                                                         
   LPAW   =        T    paw PP                                                                      
   EAUG   =  758.233                                                                                
   DEXC   =    0.000                                                                                
   RMAX   =    2.046    core radius for proj-oper                                                   
   RAUG   =    1.300    factor for augmentation sphere                                              
   RDEP   =    2.025    radius for radial grids                                                     
   RDEPT  =    1.558    core radius for aug-charge                                                  
                                                                                                    
   Atomic configuration                                                                             
    8 entries                                                                                       
     n  l   j            E        occ.                                                              
     1  0  0.50     -8850.2467   2.0000                                                             
     2  0  0.50     -1062.3498   2.0000                                                             
     2  1  1.50      -916.8226   6.0000                                                             
     3  0  0.50      -114.6929   2.0000                                                             
     3  1  1.50       -72.1325   6.0000                                                             
     3  2  2.50        -5.0394  10.0000                                                             
     4  0  0.50        -4.6097   1.0000                                                             
     4  3  2.50        -1.3606   0.0000                                                             
   Description                                                                                      
     l       E           TYP  RCUT    TYP  RCUT                                                     
     1    -72.1324777     23  1.700                                                                 
     1     -1.3605826     23  1.700                                                                 
     2     -5.0393776     23  2.000                                                                 
     2     -6.3999602     23  2.000                                                                 
     0     -4.6097062     23  1.800                                                                 
     0     14.1620818     23  1.800                                                                 
  local pseudopotential read in
  partial core-charges read in
  partial kinetic energy density read in
  atomic valenz-charges read in
  non local Contribution for L=            1  read in
    real space projection operators read in
  non local Contribution for L=            1  read in
    real space projection operators read in
  non local Contribution for L=            2  read in
    real space projection operators read in
  non local Contribution for L=            2  read in
    real space projection operators read in
  non local Contribution for L=            0  read in
    real space projection operators read in
  non local Contribution for L=            0  read in
    real space projection operators read in
    PAW grid and wavefunctions read in
 
   number of l-projection  operators is LMAX  =            6
   number of lm-projection operators is LMMAX =           18
 
 Optimization of the real space projectors (new method)

 maximal supplied QI-value         = 15.12
 optimisation between [QCUT,QGAM] = [ 10.13, 20.41] = [ 28.73,116.64] Ry 
 Optimized for a Real-space Cutoff    1.51 Angstroem

   l    n(q)    QCUT    max X(q) W(low)/X(q) W(high)/X(q)  e(spline) 
   2      8    10.129    60.898    0.46E-03    0.46E-03    0.14E-06
   2      8    10.129    58.894    0.47E-03    0.47E-03    0.14E-06
   0      9    10.129   109.617    0.16E-03    0.11E-03    0.54E-07
   0      9    10.129    75.026    0.15E-03    0.11E-03    0.52E-07
   1      9    10.129    16.344    0.96E-04    0.15E-03    0.14E-06
   1      9    10.129    10.160    0.81E-04    0.12E-03    0.11E-06
 Optimization of the real space projectors (new method)

 maximal supplied QI-value         = 18.90
 optimisation between [QCUT,QGAM] = [ 10.20, 20.41] = [ 29.16,116.64] Ry 
 Optimized for a Real-space Cutoff    1.26 Angstroem

   l    n(q)    QCUT    max X(q) W(low)/X(q) W(high)/X(q)  e(spline) 
   1      7    10.205     3.172    0.20E-03    0.15E-04    0.13E-06
   1      7    10.205     4.083    0.34E-03    0.11E-03    0.24E-06
   2      7    10.205    65.342    0.26E-03    0.63E-03    0.23E-06
   2      7    10.205    61.381    0.27E-03    0.64E-03    0.23E-06
   0      8    10.205    65.742    0.10E-03    0.19E-03    0.36E-07
   0      8    10.205    30.431    0.85E-04    0.16E-03    0.33E-07
  PAW_PBE Au 04Oct2007                  :
 energy of atom  1       EATOM= -926.0867
 kinetic energy error for atom=    0.0062 (will be added to EATOM!!)
  PAW_PBE Cu_pv 06Sep2000               :
 energy of atom  2       EATOM=-4120.1201
 kinetic energy error for atom=    0.0996 (will be added to EATOM!!)
 
 
 POSCAR: 50% Au Cu(111) slab
  positions in direct lattice
  No initial velocities read in
 IVDW         = 12
 VDW_S6       =    1.0000
 VDW_S8       =    0.7875
 VDW_A1       =    0.4289
 VDW_A2       =    4.4407
 VDW_RADIUS   =   50.2022 A
 VDW_CNRADIUS =   21.1671 A


 exchange-correlation table for PE
   RHO(1)=    0.500       N(1)  =     2000
   RHO(2)=  100.500       N(2)  =     4000
 


--------------------------------------------------------------------------------------------------------


 ion  position               nearest neighbor table
   1  0.500  0.250  0.588-   3 2.57   4 2.57   7 2.65   8 2.65  26 2.66  25 2.66  15 2.70  18 2.71
                            19 2.71
   2  0.000  0.250  0.588-   3 2.57   4 2.57   5 2.65   6 2.65  24 2.66  27 2.66  17 2.70  23 2.71
                            31 2.71
   3  0.250  0.250  0.588-   1 2.57   2 2.57   6 2.65   7 2.65  25 2.66  24 2.66  16 2.70  19 2.71
                            23 2.71
   4  0.750  0.250  0.588-   1 2.57   2 2.57   5 2.65   8 2.65  27 2.66  26 2.66  14 2.70  31 2.71
                            18 2.71
   5  0.005  0.990  0.583-  29 2.49  28 2.49  21 2.52  20 2.52   6 2.57   8 2.57  31 2.59   4 2.65
                             2 2.65
   6  0.255  0.990  0.583-  63 2.49  29 2.49  30 2.52  21 2.52   5 2.57   7 2.57  23 2.59   3 2.65
                             2 2.65
   7  0.505  0.990  0.583-  64 2.49  63 2.49  22 2.52  30 2.52   6 2.57   8 2.57  19 2.59   3 2.65
                             1 2.65
   8  0.755  0.990  0.583-  28 2.49  64 2.49  20 2.52  22 2.52   5 2.57   7 2.57  18 2.59   4 2.65
                             1 2.65
   9  0.667  0.667  0.526-  27 2.49  33 2.49  59 2.49  60 2.49  63 2.52  64 2.52
  10  0.417  0.667  0.526-  26 2.49  62 2.49  58 2.49  59 2.49  29 2.52  63 2.52
  11  0.167  0.667  0.526-  25 2.49  61 2.49  57 2.49  58 2.49  28 2.52  29 2.52
  12  0.917  0.667  0.526-  24 2.49  32 2.49  60 2.49  57 2.49  64 2.52  28 2.52
  13  0.000  0.000  0.413-
  14  0.666  0.418  0.527-  59 2.49  55 2.50  56 2.50   4 2.70
  15  0.416  0.418  0.527-  58 2.49  54 2.50  55 2.50   1 2.70
  16  0.166  0.418  0.527-  57 2.49  53 2.50  54 2.50   3 2.70
  17  0.916  0.418  0.527-  60 2.49  56 2.50  53 2.50   2 2.70
  18  0.668  0.164  0.526-  51 2.48  52 2.48  55 2.50   8 2.59   1 2.71   4 2.71
  19  0.418  0.164  0.526-  50 2.48  51 2.48  54 2.50   7 2.59   3 2.71   1 2.71
  20  0.917  0.916  0.526-  32 2.49  61 2.49  52 2.50   8 2.52   5 2.52  28 2.52
  21  0.167  0.916  0.526-  61 2.49  62 2.49  49 2.50   5 2.52   6 2.52  29 2.52
  22  0.667  0.916  0.526-  33 2.49  32 2.49  51 2.50   7 2.52   8 2.52  64 2.52
  23  0.168  0.164  0.526-  49 2.48  50 2.48  53 2.50   6 2.59   2 2.71   3 2.71
  24  0.995  0.510  0.583-  12 2.49  64 2.49  28 2.49   2 2.66   3 2.66
  25  0.245  0.510  0.583-  11 2.49  28 2.49  29 2.49   3 2.66   1 2.66
  26  0.495  0.510  0.583-  10 2.49  29 2.49  63 2.49   1 2.66   4 2.66
  27  0.745  0.510  0.583-   9 2.49  63 2.49  64 2.49   4 2.66   2 2.66
  28  0.000  0.750  0.583-   8 2.49   5 2.49  25 2.49  24 2.49  20 2.52  11 2.52  12 2.52
  29  0.250  0.750  0.583-   5 2.49   6 2.49  26 2.49  25 2.49  21 2.52  10 2.52  11 2.52
  30  0.417  0.916  0.526-  62 2.49  33 2.49  50 2.50   6 2.52   7 2.52  63 2.52
  31  0.918  0.164  0.526-  52 2.48  49 2.48  56 2.50   5 2.59   4 2.71   2 2.71
  32  0.833  0.833  0.471-  20 2.49  22 2.49  12 2.49
  33  0.583  0.833  0.471-  22 2.49  30 2.49   9 2.49
  34  0.250  0.000  0.413-
  35  0.500  0.000  0.413-
  36  0.750  0.000  0.413-
  37  0.000  0.250  0.413-
  38  0.250  0.250  0.413-
  39  0.500  0.250  0.413-
  40  0.750  0.250  0.413-
  41  0.000  0.500  0.413-
  42  0.250  0.500  0.413-
  43  0.500  0.500  0.413-
  44  0.750  0.500  0.413-
  45  0.000  0.750  0.413-
  46  0.250  0.750  0.413-
  47  0.500  0.750  0.413-
  48  0.750  0.750  0.413-
  49  0.083  0.083  0.471-  23 2.48  31 2.48  21 2.50
  50  0.333  0.083  0.471-  19 2.48  23 2.48  30 2.50
  51  0.583  0.083  0.471-  18 2.48  19 2.48  22 2.50
  52  0.833  0.083  0.471-  31 2.48  18 2.48  20 2.50
  53  0.083  0.333  0.471-  23 2.50  16 2.50  17 2.50
  54  0.333  0.333  0.471-  19 2.50  15 2.50  16 2.50
  55  0.583  0.333  0.471-  18 2.50  14 2.50  15 2.50
  56  0.833  0.333  0.471-  31 2.50  17 2.50  14 2.50
  57  0.083  0.583  0.471-  16 2.49  11 2.49  12 2.49
  58  0.333  0.583  0.471-  15 2.49  10 2.49  11 2.49
  59  0.583  0.583  0.471-  14 2.49   9 2.49  10 2.49
  60  0.833  0.583  0.471-  17 2.49  12 2.49   9 2.49
  61  0.083  0.833  0.471-  21 2.49  20 2.49  11 2.49
  62  0.333  0.833  0.471-  30 2.49  21 2.49  10 2.49
  63  0.500  0.750  0.583-   6 2.49   7 2.49  27 2.49  26 2.49  30 2.52   9 2.52  10 2.52
  64  0.750  0.750  0.583-   7 2.49   8 2.49  24 2.49  27 2.49  22 2.52  12 2.52   9 2.52
 
  LATTYP: Found a hexagonal cell.
 ALAT       =    10.2813325985
 C/A-ratio  =     3.5302821242
  
  Lattice vectors:
  
 A1 = (  -5.1406662992,  -8.9038952150,   0.0000000000)
 A2 = (  10.2813325985,   0.0000000000,   0.0000000000)
 A3 = (   0.0000000000,   0.0000000000,  36.2960046855)


Analysis of symmetry for initial positions (statically):
=====================================================================
 Subroutine PRICEL returns following result:
 
  LATTYP: Found a simple orthorhombic cell.
 ALAT       =     2.5703331496
 B/A-ratio  =     3.4641016151
 C/A-ratio  =    14.1211284969
  
  Lattice vectors:
  
 A1 = (   2.5703331496,   0.0000000000,   0.0000000000)
 A2 = (   0.0000000000,   8.9038952150,   0.0000000000)
 A3 = (   0.0000000000,   0.0000000000,  36.2960046855)
 
   4 primitive cells build up your supercell.
 

 Routine SETGRP: Setting up the symmetry group for a 
 hexagonal supercell.


 Subroutine GETGRP returns: Found  2 space group operations
 (whereof  2 operations were pure point group operations)
 out of a pool of 24 trial point group operations.


The static configuration has the point symmetry C_1h.


Analysis of symmetry for dynamics (positions and initial velocities):
=====================================================================
 Subroutine PRICEL returns following result:
 
  LATTYP: Found a simple orthorhombic cell.
 ALAT       =     2.5703331496
 B/A-ratio  =     3.4641016151
 C/A-ratio  =    14.1211284969
  
  Lattice vectors:
  
 A1 = (   2.5703331496,   0.0000000000,   0.0000000000)
 A2 = (   0.0000000000,   8.9038952150,   0.0000000000)
 A3 = (   0.0000000000,   0.0000000000,  36.2960046855)
 
   4 primitive cells build up your supercell.
 

 Routine SETGRP: Setting up the symmetry group for a 
 hexagonal supercell.


 Subroutine GETGRP returns: Found  2 space group operations
 (whereof  2 operations were pure point group operations)
 out of a pool of 24 trial point group operations.


The dynamic configuration has the point symmetry C_1h.


Analysis of constrained symmetry for selective dynamics:
=====================================================================
 Subroutine PRICEL returns following result:
 
  LATTYP: Found a simple orthorhombic cell.
 ALAT       =     2.5703331496
 B/A-ratio  =     3.4641016151
 C/A-ratio  =    14.1211284969
  
  Lattice vectors:
  
 A1 = (   2.5703331496,   0.0000000000,   0.0000000000)
 A2 = (   0.0000000000,   8.9038952150,   0.0000000000)
 A3 = (   0.0000000000,   0.0000000000,  36.2960046855)
 
   4 primitive cells build up your supercell.
 

 Routine SETGRP: Setting up the symmetry group for a 
 hexagonal supercell.


 Subroutine GETGRP returns: Found  2 space group operations
 (whereof  2 operations were pure point group operations)
 out of a pool of 24 trial point group operations.


The constrained configuration has the point symmetry C_1h.


 Subroutine INISYM returns: Found  2 space group operations
 (whereof  2 operations are pure point group operations),
 and found     4 'primitive' translations


----------------------------------------------------------------------------------------

                                     Primitive cell                                     

  volume of cell :     830.6695

  direct lattice vectors                    reciprocal lattice vectors
     2.570333150  0.000000000  0.000000000     0.389054625 -0.000000000  0.000000000
     0.000000000  8.903895215  0.000000000     0.000000000  0.112310396  0.000000000
     0.000000000  0.000000000 36.296004686     0.000000000  0.000000000  0.027551242

  length of vectors
     2.570333150  8.903895215 36.296004686     0.389054625  0.112310396  0.027551242

  position of ions in fractional coordinates (direct lattice)
     0.500000000  0.249568214  0.588444282
     0.000000000  0.989687423  0.583029619
     1.000000000  0.666972847  0.526297680
     0.000000000  0.000000000  0.413268626
     0.500000000  0.418384184  0.526520432
     1.000000000  0.164482091  0.526043723
     0.500000000  0.915651284  0.526297888
     1.000000000  0.509844846  0.583098764
     0.500000000  0.749764957  0.582551711
     0.000000000  0.833333333  0.471089542
     0.500000000  0.250000000  0.413268626
     0.000000000  0.500000000  0.413268626
     0.500000000  0.750000000  0.413268626
     0.500000000  0.083333333  0.471089542
     0.000000000  0.333333333  0.471089542
     0.500000000  0.583333333  0.471089542

  ion indices of the primitive-cell ions
   primitive index   ion index
                 1           1
                 2           7
                 3          10
                 4          35
                 5          15
                 6          19
                 7          30
                 8          26
                 9          63
                10          33
                11          39
                12          43
                13          47
                14          51
                15          55
                16          59

----------------------------------------------------------------------------------------

 
 
 KPOINTS: Gamma-centered 3x3x1                    

Automatic generation of k-mesh.
 Grid dimensions read from file:
 generate k-points for:    3    3    1

 Generating k-lattice:

  Cartesian coordinates                     Fractional coordinates (reciprocal lattice)
     0.032421219 -0.018718399  0.000000000     0.333333333 -0.000000000  0.000000000
     0.000000000  0.037436799  0.000000000     0.000000000  0.333333333  0.000000000
     0.000000000  0.000000000  0.027551242     0.000000000  0.000000000  1.000000000

  Length of vectors
     0.037436799  0.037436799  0.027551242

  Shift w.r.t. Gamma in fractional coordinates (k-lattice)
     0.000000000  0.000000000  0.000000000

 
 Subroutine IBZKPT returns following result:
 ===========================================
 
 Found      4 irreducible k-points:
 
 Following reciprocal coordinates:
            Coordinates               Weight
  0.000000  0.000000  0.000000      1.000000
  0.333333  0.000000  0.000000      4.000000
  0.000000  0.333333  0.000000      2.000000
 -0.333333  0.333333  0.000000      2.000000
 
 Following cartesian coordinates:
            Coordinates               Weight
  0.000000  0.000000  0.000000      1.000000
  0.032421 -0.018718  0.000000      4.000000
  0.000000  0.037437  0.000000      2.000000
 -0.032421  0.056155  0.000000      2.000000
 


--------------------------------------------------------------------------------------------------------




 Dimension of arrays:
   k-points           NKPTS =      4   k-points in BZ     NKDIM =      4   number of bands    NBANDS=    624
   number of dos      NEDOS =    301   number of ions     NIONS =     64
   non local maximal  LDIM  =      6   non local SUM 2l+1 LMDIM =     18
   total plane-waves  NPLWV = 450000
   max r-space proj   IRMAX =   1997   max aug-charges    IRDMAX=   8481
   dimension x,y,z NGX =    50 NGY =   50 NGZ =  180
   dimension x,y,z NGXF=   100 NGYF=  100 NGZF=  360
   support grid    NGXF=   100 NGYF=  100 NGZF=  360
   ions per type =               8  56
   NGX,Y,Z   is equivalent  to a cutoff of   8.08,  8.08,  8.24 a.u.
   NGXF,Y,Z  is equivalent  to a cutoff of  16.17, 16.17, 16.49 a.u.

 SYSTEM =  Cu-Au(111) 4x4 slab relaxation          
 POSCAR =  50% Au Cu(111) slab                     

 Startparameter for this run:
   NWRITE =      2    write-flag & timer
   PREC   = normal    normal or accurate (medium, high low for compatibility)
   ISTART =      0    job   : 0-new  1-cont  2-samecut
   ICHARG =      2    charge: 1-file 2-atom 10-const
   ISPIN  =      1    spin polarized calculation?
   LNONCOLLINEAR =      F non collinear calculations
   LSORBIT =      F    spin-orbit coupling
   INIWAV =      1    electr: 0-lowe 1-rand  2-diag
   LASPH  =      F    aspherical Exc in radial PAW
 Electronic Relaxation 1
   ENCUT  =  400.0 eV  29.40 Ry    5.42 a.u.  16.77 16.77 59.19*2*pi/ulx,y,z
   ENINI  =  400.0     initial cutoff
   ENAUG  =  758.2 eV  augmentation charge cutoff
   NELM   =     60;   NELMIN=  2; NELMDL= -5     # of ELM steps 
   EDIFF  = 0.1E-04   stopping-criterion for ELM
   LREAL  =      T    real-space projection
   NLSPLINE    = F    spline interpolate recip. space projectors
   LCOMPAT=      F    compatible to vasp.4.4
   GGA_COMPAT  = T    GGA compatible to vasp.4.4-vasp.4.6
   LMAXPAW     = -100 max onsite density
   LMAXMIX     =    2 max onsite mixed and CHGCAR
   VOSKOWN=      0    Vosko Wilk Nusair interpolation
   ROPT   =   -0.00050  -0.00050
 Ionic relaxation
   EDIFFG = -.2E-01   stopping-criterion for IOM
   NSW    =    200    number of steps for IOM
   NBLOCK =      1;   KBLOCK =    200    inner block; outer block 
   IBRION =      2    ionic relax: 0-MD 1-quasi-New 2-CG
   NFREE  =      1    steps in history (QN), initial steepest desc. (CG)
   ISIF   =      2    stress and relaxation
   IWAVPR =     11    prediction:  0-non 1-charg 2-wave 3-comb
   ISYM   =      2    0-nonsym 1-usesym 2-fastsym
   LCORR  =      T    Harris-Foulkes like correction to forces

   POTIM  = 0.5000    time-step for ionic-motion
   TEIN   =    0.0    initial temperature
   TEBEG  =    0.0;   TEEND  =   0.0 temperature during run
   SMASS  =  -3.00    Nose mass-parameter (am)
   estimated Nose-frequenzy (Omega)   =  0.10E-29 period in steps = 0.13E+47 mass=  -0.242E-26a.u.
   SCALEE = 1.0000    scale energy and forces
   NPACO  =    256;   APACO  = 10.0  distance and # of slots for P.C.
   PSTRESS=    0.0 pullay stress

  Mass of Ions in am
   POMASS = 196.97 63.55
  Ionic Valenz
   ZVAL   =  11.00 17.00
  Atomic Wigner-Seitz radii
   RWIGS  =  -1.00 -1.00
  virtual crystal weights 
   VCA    =   1.00  1.00
   NELECT =    1040.0000    total number of electrons
   NUPDOWN=      -1.0000    fix difference up-down

 DOS related values:
   EMIN   =  10.00;   EMAX   =-10.00  energy-range for DOS
   EFERMI =   0.00;   METHOD = LEGACY      
   ISMEAR =     1;   SIGMA  =   0.10  broadening in eV -4-tet -1-fermi 0-gaus
   EFERMI_NEDOS =   21; number of points for ismear=-14 and -15

 Electronic relaxation 2 (details)
   IALGO  =     38    algorithm
   LDIAG  =      T    sub-space diagonalisation (order eigenvalues)
   LSUBROT=      F    optimize rotation matrix (better conditioning)
   LROBUST=      F    robust break criterion during scf (extrapolated energy error)
   ISEARCH=      0    line search for conjugate gradient (0, 1=use gradient)
   TURBO    =      0    0=normal 1=particle mesh
   IRESTART =      0    0=no restart 2=restart with 2 vectors
   NREBOOT  =      0    no. of reboots
   NMIN     =      0    reboot dimension
   EREF     =   0.00    reference energy to select bands
   IMIX   =      4    mixing-type and parameters
     AMIX     =   0.40;   BMIX     =  1.00
     AMIX_MAG =   1.60;   BMIX_MAG =  1.00
     AMIN     =   0.10
     WC   =   100.;   INIMIX=   1;  MIXPRE=   1;  MAXMIX= -45

 Intra band minimization:
   WEIMIN = 0.0010     energy-eigenvalue tresh-hold
   EBREAK =  0.40E-08  absolut break condition
   DEPER  =   0.30     relativ break condition  

   TIME   =   0.40     timestep for ELM

  volume/ion in A,a.u.               =      51.92       350.35
  Fermi-wavevector in a.u.,A,eV,Ry     =   1.111535  2.100497 16.810138  1.235510
  Thomas-Fermi vector in A             =   2.248099
 
 Write flags
   LWAVE        =      T    write WAVECAR
   LDOWNSAMPLE  =      F    k-point downsampling of WAVECAR
   LCHARG       =      T    write CHGCAR
   LVTOT        =      F    write LOCPOT, total local potential
   LVHAR        =      F    write LOCPOT, Hartree potential only
   WRT_POTENTIAL= false  ! write potential to hdf5 file
   LELF         =      F    write electronic localiz. function (ELF)
   LORBIT       =     11    0 simple, 1 ext, 2 COOP (PROOUT), +10 PAW based schemes


 Python interface
   PLUGINS active      =      F    recompile with -DPLUGINS to activate
 
 Dipole corrections
   LMONO      =      F    monopole corrections only (constant potential shift)
   LDIPOL     =      F    correct potential (dipole corrections)
   IDIPOL     =      0    1-x, 2-y, 3-z, 4-all directions 
   EPSILON    =  1.0000000 bulk dielectric constant
   LVACPOTAV  =      F  vacuum potentials using an averaging scheme for the charge density
   VACPOTFLAT =  0.1000000 required flatness to determine vacuum potential
 
Coulomb truncation method
  LTRUNCATE          =      F  Coulomb kernel truncation to be used

 
 Exchange correlation treatment:
   GGA     = PE    functional components
   XC_C    = 1    coefficients multiplying the functional components
   LIBXC   =     F    Libxc                    
   VOSKOWN =     0    Vosko Wilk Nusair interpolation
   LHFCALC =     F    Hartree Fock is set to
   LHFONE  =     F    Hartree Fock one center treatment
   AEXX    =    0.0000 exact exchange contribution

 Parameters of functionals:
   PE:
     No parameter
 
 Van der Waals corrections
   IVDW    =    12    specifies the selected vdW correction

 Linear response parameters
   LEPSILON=     F    determine dielectric tensor
   LRPA    =     F    only Hartree local field effects (RPA)
   LNABLA  =     F    use nabla operator in PAW spheres
   LVEL    =     F    velocity operator in full k-point grid
   CSHIFT  =0.1000    complex shift for real part using Kramers Kronig
   OMEGAMAX=  -1.0    maximum frequency
   DEG_THRESHOLD= 0.2000000E-02 threshold for treating states as degnerate
   RTIME   =   -0.100 relaxation time in fs
  (WPLASMAI=    0.000 imaginary part of plasma frequency in eV, 0.658/RTIME)
   DFIELD  = 0.0000000 0.0000000 0.0000000 field for delta impulse in time
 
  Optional k-point grid parameters
   LKPOINTS_OPT  =     F    use optional k-point grid
   KPOINTS_OPT_MODE=     1    mode for optional k-point grid
 
 Orbital magnetization related:
   ORBITALMAG=     F  switch on orbital magnetization
   LCHIMAG   =     F  perturbation theory with respect to B field
   DQ        =  0.001000  dq finite difference perturbation B field
   LLRAUG    =     F  two centre corrections for induced B field
   LBONE     =     F  B-component reconstruction in AE one-centre
   LVGVCALC  =     T  calculate vGv susceptibility
   LVGVAPPL  =     F  apply vGv susceptibility instead of pGv for G=0

 Random number generation:
   RANDOM_GENERATOR = DEFAULT
   PCG_SEED         = not used


--------------------------------------------------------------------------------------------------------


 conjugate gradient relaxation of ions
   using selective dynamics as specified on POSCAR
 charge density and potential will be updated during run
 non-spin polarized calculation
 Variant of blocked Davidson
 Davidson routine will perform the subspace rotation
 perform sub-space diagonalisation
    after iterative eigenvector-optimisation
 modified Broyden-mixing scheme, WC =      100.0
 initial mixing is a Kerker type mixing with AMIX =  0.4000 and BMIX =      1.0000
 Hartree-type preconditioning will be used
 using additional bands           104
 real space projection scheme for non local part
 use partial core corrections
 calculate Harris-corrections to forces 
   (improved forces if not selfconsistent)
 use gradient corrections 
 use of overlap-Matrix (Vanderbilt PP)
 Methfessel and Paxton  Order N= 1 SIGMA  =   0.10


--------------------------------------------------------------------------------------------------------


  energy-cutoff  :      400.00
  volume of cell :     3322.68
      direct lattice vectors                 reciprocal lattice vectors
    10.281332598  0.000000000  0.000000000     0.097263656 -0.056155198  0.000000000
     5.140666299  8.903895215  0.000000000     0.000000000  0.112310396  0.000000000
     0.000000000  0.000000000 36.296004686     0.000000000  0.000000000  0.027551242

  length of vectors
    10.281332598 10.281332598 36.296004686     0.112310396  0.112310396  0.027551242


 
 k-points in units of 2pi/SCALE and weight: Gamma-centered 3x3x1                    
   0.00000000  0.00000000  0.00000000       0.111
   0.03242122 -0.01871840  0.00000000       0.444
   0.00000000  0.03743680  0.00000000       0.222
  -0.03242122  0.05615520  0.00000000       0.222
 
 k-points in reciprocal lattice and weights: Gamma-centered 3x3x1                    
   0.00000000  0.00000000  0.00000000       0.111
   0.33333333  0.00000000  0.00000000       0.444
   0.00000000  0.33333333  0.00000000       0.222
  -0.33333333  0.33333333  0.00000000       0.222
 
 position of ions in fractional coordinates (direct lattice) 
   0.50021589  0.24956821  0.58844428
   0.00021589  0.24956821  0.58844428
   0.25021589  0.24956821  0.58844428
   0.75021589  0.24956821  0.58844428
   0.00515629  0.98968742  0.58302962
   0.25515629  0.98968742  0.58302962
   0.50515629  0.98968742  0.58302962
   0.75515629  0.98968742  0.58302962
   0.66651358  0.66697285  0.52629768
   0.41651358  0.66697285  0.52629768
   0.16651358  0.66697285  0.52629768
   0.91651358  0.66697285  0.52629768
   0.00000000  0.00000000  0.41326863
   0.66580791  0.41838418  0.52652043
   0.41580791  0.41838418  0.52652043
   0.16580791  0.41838418  0.52652043
   0.91580791  0.41838418  0.52652043
   0.66775895  0.16448209  0.52604372
   0.41775895  0.16448209  0.52604372
   0.91717436  0.91565128  0.52629789
   0.16717436  0.91565128  0.52629789
   0.66717436  0.91565128  0.52629789
   0.16775895  0.16448209  0.52604372
   0.99507758  0.50984485  0.58309876
   0.24507758  0.50984485  0.58309876
   0.49507758  0.50984485  0.58309876
   0.74507758  0.50984485  0.58309876
   0.00011752  0.74976496  0.58255171
   0.25011752  0.74976496  0.58255171
   0.41717436  0.91565128  0.52629789
   0.91775895  0.16448209  0.52604372
   0.83333333  0.83333333  0.47108954
   0.58333333  0.83333333  0.47108954
   0.25000000  0.00000000  0.41326863
   0.50000000  0.00000000  0.41326863
   0.75000000  0.00000000  0.41326863
   0.00000000  0.25000000  0.41326863
   0.25000000  0.25000000  0.41326863
   0.50000000  0.25000000  0.41326863
   0.75000000  0.25000000  0.41326863
   0.00000000  0.50000000  0.41326863
   0.25000000  0.50000000  0.41326863
   0.50000000  0.50000000  0.41326863
   0.75000000  0.50000000  0.41326863
   0.00000000  0.75000000  0.41326863
   0.25000000  0.75000000  0.41326863
   0.50000000  0.75000000  0.41326863
   0.75000000  0.75000000  0.41326863
   0.08333333  0.08333333  0.47108954
   0.33333333  0.08333333  0.47108954
   0.58333333  0.08333333  0.47108954
   0.83333333  0.08333333  0.47108954
   0.08333333  0.33333333  0.47108954
   0.33333333  0.33333333  0.47108954
   0.58333333  0.33333333  0.47108954
   0.83333333  0.33333333  0.47108954
   0.08333333  0.58333333  0.47108954
   0.33333333  0.58333333  0.47108954
   0.58333333  0.58333333  0.47108954
   0.83333333  0.58333333  0.47108954
   0.08333333  0.83333333  0.47108954
   0.33333333  0.83333333  0.47108954
   0.50011752  0.74976496  0.58255171
   0.75011752  0.74976496  0.58255171
 
 position of ions in cartesian coordinates  (Angst):
   6.42583287  2.22212922 21.35817643
   1.28516657  2.22212922 21.35817643
   3.85549972  2.22212922 21.35817643
   8.99616602  2.22212922 21.35817643
   5.14066630  8.81207311 21.16164578
   7.71099945  8.81207311 21.16164578
  10.28133260  8.81207311 21.16164578
  12.85166575  8.81207311 21.16164578
  10.28133260  5.93865634 19.10250305
   7.71099945  5.93865634 19.10250305
   5.14066630  5.93865634 19.10250305
  12.85166575  5.93865634 19.10250305
   0.00000000  0.00000000 15.00000000
   8.99616602  3.72524894 19.11058808
   6.42583287  3.72524894 19.11058808
   3.85549972  3.72524894 19.11058808
  11.56649917  3.72524894 19.11058808
   7.71099945  1.46453130 19.09328542
   5.14066630  1.46453130 19.09328542
  14.13683232  8.15286309 19.10251061
   6.42583287  8.15286309 19.10251061
  11.56649917  8.15286309 19.10251061
   2.57033315  1.46453130 19.09328542
  12.85166575  4.53960509 21.16415548
   5.14066630  4.53960509 21.16415548
   7.71099945  4.53960509 21.16415548
  10.28133260  4.53960509 21.16415548
   3.85549972  6.67582861 21.14429963
   6.42583287  6.67582861 21.14429963
   8.99616602  8.15286309 19.10251061
  10.28133260  1.46453130 19.09328542
  12.85166575  7.41991268 17.09866823
  10.28133260  7.41991268 17.09866823
   2.57033315  0.00000000 15.00000000
   5.14066630  0.00000000 15.00000000
   7.71099945  0.00000000 15.00000000
   1.28516657  2.22597380 15.00000000
   3.85549972  2.22597380 15.00000000
   6.42583287  2.22597380 15.00000000
   8.99616602  2.22597380 15.00000000
   2.57033315  4.45194761 15.00000000
   5.14066630  4.45194761 15.00000000
   7.71099945  4.45194761 15.00000000
  10.28133260  4.45194761 15.00000000
   3.85549972  6.67792141 15.00000000
   6.42583287  6.67792141 15.00000000
   8.99616602  6.67792141 15.00000000
  11.56649917  6.67792141 15.00000000
   1.28516657  0.74199127 17.09866823
   3.85549972  0.74199127 17.09866823
   6.42583287  0.74199127 17.09866823
   8.99616602  0.74199127 17.09866823
   2.57033315  2.96796507 17.09866823
   5.14066630  2.96796507 17.09866823
   7.71099945  2.96796507 17.09866823
  10.28133260  2.96796507 17.09866823
   3.85549972  5.19393888 17.09866823
   6.42583287  5.19393888 17.09866823
   8.99616602  5.19393888 17.09866823
  11.56649917  5.19393888 17.09866823
   5.14066630  7.41991268 17.09866823
   7.71099945  7.41991268 17.09866823
   8.99616602  6.67582861 21.14429963
  11.56649917  6.67582861 21.14429963
 


--------------------------------------------------------------------------------------------------------


 k-point     1 :   0.0000 0.0000 0.0000  plane waves:   60263
 k-point     2 :   0.3333 0.0000 0.0000  plane waves:   60381
 k-point     3 :   0.0000 0.3333 0.0000  plane waves:   60381
 k-point     4 :  -0.3333 0.3333 0.0000  plane waves:   60237

 maximum and minimum number of plane-waves per node :     60381    60237

 maximum number of plane-waves:     60381
 maximum index in each direction: 
   IXMAX=   17   IYMAX=   16   IZMAX=   59
   IXMIN=  -17   IYMIN=  -17   IZMIN=  -59


 serial   3D FFT for wavefunctions
 parallel 3D FFT for charge:
    minimum data exchange during FFTs selected (reduces bandwidth)


 total amount of memory used by VASP MPI-rank0  2846305. kBytes
=======================================================================

   base                                    :      30000. kBytes
   nonlr-proj                              :      14369. kBytes
   fftplans                                :     123120. kBytes
   grid                                    :     220440. kBytes
   one-center                              :        995. kBytes
   wavefun                                 :    2457381. kBytes
 
     INWAV:  cpu time      0.0000: real time      0.0001
 Broyden mixing: mesh for mixing (old mesh)
   NGX = 33   NGY = 33   NGZ =119
  (NGX  =100   NGY  =100   NGZ  =360)
  gives a total of 129591 points

 initial charge density was supplied:
 charge density of overlapping atoms calculated
 number of electron    1040.0000000 magnetization 
 keeping initial charge density in first step


--------------------------------------------------------------------------------------------------------


 Maximum index for non-local projection operator          1898
 Maximum index for augmentation-charges          8053 (set IRDMAX)


--------------------------------------------------------------------------------------------------------


 First call to EWALD:  gamma=   0.119
 Maximum number of real-space cells   4x   4x   1
 Maximum number of reciprocal cells   2x   2x   6

    FEWALD:  cpu time      0.1112: real time      0.1114


--------------------------------------- Ionic step        1  -------------------------------------------




--------------------------------------- Iteration      1(   1)  ---------------------------------------


    POTLOK:  cpu time      0.0335: real time      0.0336
    SETDIJ:  cpu time      0.0481: real time      0.0482
     EDDAV:  cpu time     13.6344: real time     13.6679
       DOS:  cpu time      0.0011: real time      0.0011
    --------------------------------------------
      LOOP:  cpu time     13.7171: real time     13.7507

 eigenvalue-minimisations  :  6304
 total energy-change (2. order) : 0.8260859E+04  (-0.6495221E+05)
 number of electron    1040.0000000 magnetization 
 augmentation part     1040.0000000 magnetization 

 Free energy of the ion-electron system (eV)
  ---------------------------------------------------
  alpha Z        PSCENC =      2130.86679331
  Ewald energy   TEWEN  =   1836093.97610723
  -Hartree energ DENC   =  -2048192.39766994
  -exchange      EXHF   =         0.00000000
  -V(xc)+E(xc)   XCENC  =      6186.82228769
  PAW double counting   =    201865.85967082  -210050.44203064
  entropy T*S    EENTRO =        -0.00723365
  eigenvalues    EBANDS =    -17903.61039280
  atomic energy  EATOM  =    238129.79099658
  Solvation  Ediel_sol  =         0.00000000
  ---------------------------------------------------
  free energy    TOTEN  =      8260.85852861 eV

  energy without entropy =     8260.86576226  energy(sigma->0) =     8260.86093983


--------------------------------------------------------------------------------------------------------




--------------------------------------- Iteration      1(   2)  ---------------------------------------


     EDDAV:  cpu time     11.7558: real time     11.7787
       DOS:  cpu time      0.0012: real time      0.0012
    --------------------------------------------
      LOOP:  cpu time     11.7571: real time     11.7799

 eigenvalue-minimisations  :  5376
 total energy-change (2. order) :-0.8161942E+04  (-0.7969362E+04)
 number of electron    1040.0000000 magnetization 
 augmentation part     1040.0000000 magnetization 

 Free energy of the ion-electron system (eV)
  ---------------------------------------------------
  alpha Z        PSCENC =      2130.86679331
  Ewald energy   TEWEN  =   1836093.97610723
  -Hartree energ DENC   =  -2048192.39766994
  -exchange      EXHF   =         0.00000000
  -V(xc)+E(xc)   XCENC  =      6186.82228769
  PAW double counting   =    201865.85967082  -210050.44203064
  entropy T*S    EENTRO =        -0.00603186
  eigenvalues    EBANDS =    -26065.55373658
  atomic energy  EATOM  =    238129.79099658
  Solvation  Ediel_sol  =         0.00000000
  ---------------------------------------------------
  free energy    TOTEN  =        98.91638663 eV

  energy without entropy =       98.92241849  energy(sigma->0) =       98.91839725


--------------------------------------------------------------------------------------------------------




--------------------------------------- Iteration      1(   3)  ---------------------------------------


     EDDAV:  cpu time     12.0255: real time     12.0537
       DOS:  cpu time      0.0013: real time      0.0013
    --------------------------------------------
      LOOP:  cpu time     12.0267: real time     12.0549

 eigenvalue-minimisations  :  5520
 total energy-change (2. order) :-0.3593389E+03  (-0.3529425E+03)
 number of electron    1040.0000000 magnetization 
 augmentation part     1040.0000000 magnetization 

 Free energy of the ion-electron system (eV)
  ---------------------------------------------------
  alpha Z        PSCENC =      2130.86679331
  Ewald energy   TEWEN  =   1836093.97610723
  -Hartree energ DENC   =  -2048192.39766994
  -exchange      EXHF   =         0.00000000
  -V(xc)+E(xc)   XCENC  =      6186.82228769
  PAW double counting   =    201865.85967082  -210050.44203064
  entropy T*S    EENTRO =        -0.03997302
  eigenvalues    EBANDS =    -26424.85868426
  atomic energy  EATOM  =    238129.79099658
  Solvation  Ediel_sol  =         0.00000000
  ---------------------------------------------------
  free energy    TOTEN  =      -260.42250222 eV

  energy without entropy =     -260.38252920  energy(sigma->0) =     -260.40917788


--------------------------------------------------------------------------------------------------------




--------------------------------------- Iteration      1(   4)  ---------------------------------------


     EDDAV:  cpu time     11.6876: real time     11.7132
       DOS:  cpu time      0.0013: real time      0.0012
    --------------------------------------------
      LOOP:  cpu time     11.6889: real time     11.7145

 eigenvalue-minimisations  :  5328
 total energy-change (2. order) :-0.6436142E+01  (-0.6421432E+01)
 number of electron    1040.0000000 magnetization 
 augmentation part     1040.0000000 magnetization 

 Free energy of the ion-electron system (eV)
  ---------------------------------------------------
  alpha Z        PSCENC =      2130.86679331
  Ewald energy   TEWEN  =   1836093.97610723
  -Hartree energ DENC   =  -2048192.39766994
  -exchange      EXHF   =         0.00000000
  -V(xc)+E(xc)   XCENC  =      6186.82228769
  PAW double counting   =    201865.85967082  -210050.44203064
  entropy T*S    EENTRO =        -0.03796139
  eigenvalues    EBANDS =    -26431.29683762
  atomic energy  EATOM  =    238129.79099658
  Solvation  Ediel_sol  =         0.00000000
  ---------------------------------------------------
  free energy    TOTEN  =      -266.85864394 eV

  energy without entropy =     -266.82068255  energy(sigma->0) =     -266.84599015


--------------------------------------------------------------------------------------------------------




--------------------------------------- Iteration      1(   5)  ---------------------------------------


     EDDAV:  cpu time     13.2239: real time     13.2502
       DOS:  cpu time      0.0012: real time      0.0012
    CHARGE:  cpu time      0.4668: real time      0.4677
    MIXING:  cpu time      0.0435: real time      0.0435
    --------------------------------------------
      LOOP:  cpu time     13.7355: real time     13.7627

 eigenvalue-minimisations  :  6224
 total energy-change (2. order) :-0.2488978E+00  (-0.2488514E+00)
 number of electron    1039.9998396 magnetization 
 augmentation part      612.6609184 magnetization 

 Broyden mixing:
  rms(total) = 0.71631E+01    rms(broyden)= 0.71619E+01
  rms(prec ) = 0.72675E+01
  weight for this iteration     100.00

 Free energy of the ion-electron system (eV)
  ---------------------------------------------------
  alpha Z        PSCENC =      2130.86679331
  Ewald energy   TEWEN  =   1836093.97610723
  -Hartree energ DENC   =  -2048192.39766994
  -exchange      EXHF   =         0.00000000
  -V(xc)+E(xc)   XCENC  =      6186.82228769
  PAW double counting   =    201865.85967082  -210050.44203064
  entropy T*S    EENTRO =        -0.03793593
  eigenvalues    EBANDS =    -26431.54576090
  atomic energy  EATOM  =    238129.79099658
  Solvation  Ediel_sol  =         0.00000000
  ---------------------------------------------------
  free energy    TOTEN  =      -267.10754176 eV

  energy without entropy =     -267.06960583  energy(sigma->0) =     -267.09489645


--------------------------------------------------------------------------------------------------------




--------------------------------------- Iteration      1(   6)  ---------------------------------------


    POTLOK:  cpu time      0.0210: real time      0.0216
    SETDIJ:  cpu time      0.0481: real time      0.0482
     EDDAV:  cpu time     11.8281: real time     11.8500
       DOS:  cpu time      0.0010: real time      0.0010
    CHARGE:  cpu time      0.4588: real time      0.4596
    MIXING:  cpu time      0.0446: real time      0.0446
    --------------------------------------------
      LOOP:  cpu time     12.4015: real time     12.4251

 eigenvalue-minimisations  :  5408
 total energy-change (2. order) : 0.2084548E+02  (-0.5549284E+02)
 number of electron    1039.9998194 magnetization 
 augmentation part      656.8910276 magnetization 

 Broyden mixing:
  rms(total) = 0.76525E+01    rms(broyden)= 0.76521E+01
  rms(prec ) = 0.76960E+01
  weight for this iteration     100.00

 eigenvalues of (default mixing * dielectric matrix)
  average eigenvalue GAMMA=   0.4595
  0.4595

 Free energy of the ion-electron system (eV)
  ---------------------------------------------------
  alpha Z        PSCENC =      2130.86679331
  Ewald energy   TEWEN  =   1836093.97610723
  -Hartree energ DENC   =  -2045147.68551101
  -exchange      EXHF   =         0.00000000
  -V(xc)+E(xc)   XCENC  =      6077.75073689
  PAW double counting   =    200724.56320943  -208731.21792073
  entropy T*S    EENTRO =         0.00331535
  eigenvalues    EBANDS =    -29524.30978981
  atomic energy  EATOM  =    238129.79099658
  Solvation  Ediel_sol  =         0.00000000
  ---------------------------------------------------
  free energy    TOTEN  =      -246.26206274 eV

  energy without entropy =     -246.26537810  energy(sigma->0) =     -246.26316786


--------------------------------------------------------------------------------------------------------




--------------------------------------- Iteration      1(   7)  ---------------------------------------


    POTLOK:  cpu time      0.0206: real time      0.0208
    SETDIJ:  cpu time      0.0479: real time      0.0480
     EDDAV:  cpu time     12.0874: real time     12.1109
       DOS:  cpu time      0.0011: real time      0.0011
    CHARGE:  cpu time      0.4584: real time      0.4592
    MIXING:  cpu time      0.0452: real time      0.0453
    --------------------------------------------
      LOOP:  cpu time     12.6606: real time     12.6853

 eigenvalue-minimisations  :  5560
 total energy-change (2. order) : 0.2365029E+02  (-0.7268965E+01)
 number of electron    1039.9998273 magnetization 
 augmentation part      644.6589656 magnetization 

 Broyden mixing:
  rms(total) = 0.32801E+01    rms(broyden)= 0.32801E+01
  rms(prec ) = 0.32889E+01
  weight for this iteration     100.00

 eigenvalues of (default mixing * dielectric matrix)
  average eigenvalue GAMMA=   0.9381
  1.2642  0.6120

 Free energy of the ion-electron system (eV)
  ---------------------------------------------------
  alpha Z        PSCENC =      2130.86679331
  Ewald energy   TEWEN  =   1836093.97610723
  -Hartree energ DENC   =  -2046290.84596223
  -exchange      EXHF   =         0.00000000
  -V(xc)+E(xc)   XCENC  =      6107.75059908
  PAW double counting   =    204767.77630872  -212977.97621070
  entropy T*S    EENTRO =         0.02296040
  eigenvalues    EBANDS =    -28183.97336170
  atomic energy  EATOM  =    238129.79099658
  Solvation  Ediel_sol  =         0.00000000
  ---------------------------------------------------
  free energy    TOTEN  =      -222.61176930 eV

  energy without entropy =     -222.63472970  energy(sigma->0) =     -222.61942277


--------------------------------------------------------------------------------------------------------




--------------------------------------- Iteration      1(   8)  ---------------------------------------


    POTLOK:  cpu time      0.0209: real time      0.0215
    SETDIJ:  cpu time      0.0481: real time      0.0482
     EDDAV:  cpu time     11.8684: real time     11.8951
       DOS:  cpu time      0.0012: real time      0.0012
    CHARGE:  cpu time      0.4585: real time      0.4594
    MIXING:  cpu time      0.0455: real time      0.0455
    --------------------------------------------
      LOOP:  cpu time     12.4425: real time     12.4708

 eigenvalue-minimisations  :  5440
 total energy-change (2. order) : 0.6605948E+00  (-0.2836732E+01)
 number of electron    1039.9998240 magnetization 
 augmentation part      637.3421940 magnetization 

 Broyden mixing:
  rms(total) = 0.13452E+01    rms(broyden)= 0.13450E+01
  rms(prec ) = 0.13704E+01
  weight for this iteration     100.00

 eigenvalues of (default mixing * dielectric matrix)
  average eigenvalue GAMMA=   1.0684
  1.9718  0.6167  0.6167

 Free energy of the ion-electron system (eV)
  ---------------------------------------------------
  alpha Z        PSCENC =      2130.86679331
  Ewald energy   TEWEN  =   1836093.97610723
  -Hartree energ DENC   =  -2046725.91285190
  -exchange      EXHF   =         0.00000000
  -V(xc)+E(xc)   XCENC  =      6118.02385089
  PAW double counting   =    208497.85147034  -216884.81532739
  entropy T*S    EENTRO =        -0.02349054
  eigenvalues    EBANDS =    -27581.70872305
  atomic energy  EATOM  =    238129.79099658
  Solvation  Ediel_sol  =         0.00000000
  ---------------------------------------------------
  free energy    TOTEN  =      -221.95117452 eV

  energy without entropy =     -221.92768398  energy(sigma->0) =     -221.94334434


--------------------------------------------------------------------------------------------------------




--------------------------------------- Iteration      1(   9)  ---------------------------------------


    POTLOK:  cpu time      0.0205: real time      0.0207
    SETDIJ:  cpu time      0.0479: real time      0.0480
     EDDAV:  cpu time     11.8986: real time     11.9262
       DOS:  cpu time      0.0012: real time      0.0011
    CHARGE:  cpu time      0.4608: real time      0.4621
    MIXING:  cpu time      0.0465: real time      0.0466
    --------------------------------------------
      LOOP:  cpu time     12.4756: real time     12.5048

 eigenvalue-minimisations  :  5456
 total energy-change (2. order) : 0.7703345E+00  (-0.3779584E+00)
 number of electron    1039.9998255 magnetization 
 augmentation part      638.2161281 magnetization 

 Broyden mixing:
  rms(total) = 0.87237E+00    rms(broyden)= 0.87228E+00
  rms(prec ) = 0.91427E+00
  weight for this iteration     100.00

 eigenvalues of (default mixing * dielectric matrix)
  average eigenvalue GAMMA=   0.9835
  2.1627  0.6276  0.6276  0.5162

 Free energy of the ion-electron system (eV)
  ---------------------------------------------------
  alpha Z        PSCENC =      2130.86679331
  Ewald energy   TEWEN  =   1836093.97610723
  -Hartree energ DENC   =  -2046626.87549472
  -exchange      EXHF   =         0.00000000
  -V(xc)+E(xc)   XCENC  =      6112.23278553
  PAW double counting   =    209744.85608674  -218189.82199628
  entropy T*S    EENTRO =        -0.01879886
  eigenvalues    EBANDS =    -27616.18731957
  atomic energy  EATOM  =    238129.79099658
  Solvation  Ediel_sol  =         0.00000000
  ---------------------------------------------------
  free energy    TOTEN  =      -221.18084003 eV

  energy without entropy =     -221.16204117  energy(sigma->0) =     -221.17457375


--------------------------------------------------------------------------------------------------------




--------------------------------------- Iteration      1(  10)  ---------------------------------------


    POTLOK:  cpu time      0.0203: real time      0.0205
    SETDIJ:  cpu time      0.0486: real time      0.0488
     EDDAV:  cpu time     12.0603: real time     12.0901
       DOS:  cpu time      0.0012: real time      0.0012
    CHARGE:  cpu time      0.4592: real time      0.4600
    MIXING:  cpu time      0.0474: real time      0.0475
    --------------------------------------------
      LOOP:  cpu time     12.6369: real time     12.6680

 eigenvalue-minimisations  :  5544
 total energy-change (2. order) :-0.1213128E+00  (-0.2453210E+00)
 number of electron    1039.9998299 magnetization 
 augmentation part      638.9474752 magnetization 

 Broyden mixing:
  rms(total) = 0.57723E+00    rms(broyden)= 0.57694E+00
  rms(prec ) = 0.66533E+00
  weight for this iteration     100.00

 eigenvalues of (default mixing * dielectric matrix)
  average eigenvalue GAMMA=   0.9373
  2.3575  0.6948  0.6948  0.4697  0.4697

 Free energy of the ion-electron system (eV)
  ---------------------------------------------------
  alpha Z        PSCENC =      2130.86679331
  Ewald energy   TEWEN  =   1836093.97610723
  -Hartree energ DENC   =  -2046544.92243112
  -exchange      EXHF   =         0.00000000
  -V(xc)+E(xc)   XCENC  =      6110.25258293
  PAW double counting   =    210034.77533772  -218489.17766728
  entropy T*S    EENTRO =        -0.00060041
  eigenvalues    EBANDS =    -27686.86327179
  atomic energy  EATOM  =    238129.79099658
  Solvation  Ediel_sol  =         0.00000000
  ---------------------------------------------------
  free energy    TOTEN  =      -221.30215283 eV

  energy without entropy =     -221.30155242  energy(sigma->0) =     -221.30195269


--------------------------------------------------------------------------------------------------------




--------------------------------------- Iteration      1(  11)  ---------------------------------------


    POTLOK:  cpu time      0.0207: real time      0.0214
    SETDIJ:  cpu time      0.0481: real time      0.0482
     EDDAV:  cpu time     12.3508: real time     12.3776
       DOS:  cpu time      0.0012: real time      0.0012
    CHARGE:  cpu time      0.4639: real time      0.4648
    MIXING:  cpu time      0.0480: real time      0.0481
    --------------------------------------------
      LOOP:  cpu time     12.9328: real time     12.9613

 eigenvalue-minimisations  :  5720
 total energy-change (2. order) : 0.1297351E+00  (-0.7577155E-01)
 number of electron    1039.9998239 magnetization 
 augmentation part      639.3726616 magnetization 

 Broyden mixing:
  rms(total) = 0.46390E+00    rms(broyden)= 0.46356E+00
  rms(prec ) = 0.56031E+00
  weight for this iteration     100.00

 eigenvalues of (default mixing * dielectric matrix)
  average eigenvalue GAMMA=   0.9401
  2.5019  1.0670  0.6615  0.6615  0.4706  0.2780

 Free energy of the ion-electron system (eV)
  ---------------------------------------------------
  alpha Z        PSCENC =      2130.86679331
  Ewald energy   TEWEN  =   1836093.97610723
  -Hartree energ DENC   =  -2046520.76736614
  -exchange      EXHF   =         0.00000000
  -V(xc)+E(xc)   XCENC  =      6108.26587474
  PAW double counting   =    210194.52879627  -218656.40076126
  entropy T*S    EENTRO =        -0.00081460
  eigenvalues    EBANDS =    -27701.43204382
  atomic energy  EATOM  =    238129.79099658
  Solvation  Ediel_sol  =         0.00000000
  ---------------------------------------------------
  free energy    TOTEN  =      -221.17241768 eV

  energy without entropy =     -221.17160308  energy(sigma->0) =     -221.17214615


--------------------------------------------------------------------------------------------------------




--------------------------------------- Iteration      1(  12)  ---------------------------------------


    POTLOK:  cpu time      0.0211: real time      0.0212
    SETDIJ:  cpu time      0.0482: real time      0.0483
     EDDAV:  cpu time     13.6722: real time     13.6992
       DOS:  cpu time      0.0012: real time      0.0011
    CHARGE:  cpu time      0.4621: real time      0.4629
    MIXING:  cpu time      0.0486: real time      0.0487
    --------------------------------------------
      LOOP:  cpu time     14.2532: real time     14.2814

 eigenvalue-minimisations  :  6480
 total energy-change (2. order) : 0.4125694E+00  (-0.3261027E-01)
 number of electron    1039.9998275 magnetization 
 augmentation part      639.7742741 magnetization 

 Broyden mixing:
  rms(total) = 0.12706E+00    rms(broyden)= 0.12682E+00
  rms(prec ) = 0.13640E+00
  weight for this iteration     100.00

 eigenvalues of (default mixing * dielectric matrix)
  average eigenvalue GAMMA=   0.8638
  2.2839  0.9565  0.7619  0.7619  0.6086  0.4250  0.2490

 Free energy of the ion-electron system (eV)
  ---------------------------------------------------
  alpha Z        PSCENC =      2130.86679331
  Ewald energy   TEWEN  =   1836093.97610723
  -Hartree energ DENC   =  -2046520.62001116
  -exchange      EXHF   =         0.00000000
  -V(xc)+E(xc)   XCENC  =      6107.74329592
  PAW double counting   =    210209.44444429  -218672.29537365
  entropy T*S    EENTRO =        -0.00508759
  eigenvalues    EBANDS =    -27699.66101323
  atomic energy  EATOM  =    238129.79099658
  Solvation  Ediel_sol  =         0.00000000
  ---------------------------------------------------
  free energy    TOTEN  =      -220.75984829 eV

  energy without entropy =     -220.75476070  energy(sigma->0) =     -220.75815243


--------------------------------------------------------------------------------------------------------




--------------------------------------- Iteration      1(  13)  ---------------------------------------


    POTLOK:  cpu time      0.0210: real time      0.0212
    SETDIJ:  cpu time      0.0485: real time      0.0486
     EDDAV:  cpu time     12.0011: real time     12.0239
       DOS:  cpu time      0.0011: real time      0.0011
    CHARGE:  cpu time      0.4630: real time      0.4638
    MIXING:  cpu time      0.0495: real time      0.0496
    --------------------------------------------
      LOOP:  cpu time     12.5842: real time     12.6082

 eigenvalue-minimisations  :  5520
 total energy-change (2. order) :-0.9651629E-02  (-0.3068448E-01)
 number of electron    1039.9998260 magnetization 
 augmentation part      639.8595465 magnetization 

 Broyden mixing:
  rms(total) = 0.13628E+00    rms(broyden)= 0.13627E+00
  rms(prec ) = 0.13845E+00
  weight for this iteration     100.00

 eigenvalues of (default mixing * dielectric matrix)
  average eigenvalue GAMMA=   0.8657
  2.3601  1.4539  0.7373  0.7373  0.5231  0.5231  0.3469  0.2442

 Free energy of the ion-electron system (eV)
  ---------------------------------------------------
  alpha Z        PSCENC =      2130.86679331
  Ewald energy   TEWEN  =   1836093.97610723
  -Hartree energ DENC   =  -2046552.04422632
  -exchange      EXHF   =         0.00000000
  -V(xc)+E(xc)   XCENC  =      6108.23210287
  PAW double counting   =    210114.15734162  -218575.07198315
  entropy T*S    EENTRO =        -0.00637467
  eigenvalues    EBANDS =    -27670.67025741
  atomic energy  EATOM  =    238129.79099658
  Solvation  Ediel_sol  =         0.00000000
  ---------------------------------------------------
  free energy    TOTEN  =      -220.76949992 eV

  energy without entropy =     -220.76312525  energy(sigma->0) =     -220.76737503


--------------------------------------------------------------------------------------------------------




--------------------------------------- Iteration      1(  14)  ---------------------------------------


    POTLOK:  cpu time      0.0210: real time      0.0212
    SETDIJ:  cpu time      0.0482: real time      0.0483
     EDDAV:  cpu time     11.7009: real time     11.7260
       DOS:  cpu time      0.0012: real time      0.0012
    CHARGE:  cpu time      0.4654: real time      0.4667
    MIXING:  cpu time      0.0506: real time      0.0508
    --------------------------------------------
      LOOP:  cpu time     12.2873: real time     12.3141

 eigenvalue-minimisations  :  5344
 total energy-change (2. order) : 0.2051526E-02  (-0.5224962E-02)
 number of electron    1039.9998266 magnetization 
 augmentation part      639.7800380 magnetization 

 Broyden mixing:
  rms(total) = 0.79194E-01    rms(broyden)= 0.79189E-01
  rms(prec ) = 0.79911E-01
  weight for this iteration     100.00

 eigenvalues of (default mixing * dielectric matrix)
  average eigenvalue GAMMA=   0.8669
  2.4966  1.5234  0.7323  0.7323  0.6403  0.6403  0.4003  0.4003  0.2365

 Free energy of the ion-electron system (eV)
  ---------------------------------------------------
  alpha Z        PSCENC =      2130.86679331
  Ewald energy   TEWEN  =   1836093.97610723
  -Hartree energ DENC   =  -2046578.83280918
  -exchange      EXHF   =         0.00000000
  -V(xc)+E(xc)   XCENC  =      6108.56527100
  PAW double counting   =    210146.88009713  -218610.00281661
  entropy T*S    EENTRO =        -0.01047864
  eigenvalues    EBANDS =    -27642.00060923
  atomic energy  EATOM  =    238129.79099658
  Solvation  Ediel_sol  =         0.00000000
  ---------------------------------------------------
  free energy    TOTEN  =      -220.76744840 eV

  energy without entropy =     -220.75696975  energy(sigma->0) =     -220.76395551


--------------------------------------------------------------------------------------------------------




--------------------------------------- Iteration      1(  15)  ---------------------------------------


    POTLOK:  cpu time      0.0216: real time      0.0218
    SETDIJ:  cpu time      0.0483: real time      0.0485
     EDDAV:  cpu time     11.6176: real time     11.6430
       DOS:  cpu time      0.0011: real time      0.0011
    CHARGE:  cpu time      0.4654: real time      0.4663
    MIXING:  cpu time      0.0520: real time      0.0521
    --------------------------------------------
      LOOP:  cpu time     12.2061: real time     12.2329

 eigenvalue-minimisations  :  5288
 total energy-change (2. order) : 0.2615922E-03  (-0.1031952E-02)
 number of electron    1039.9998266 magnetization 
 augmentation part      639.7104502 magnetization 

 Broyden mixing:
  rms(total) = 0.59323E-01    rms(broyden)= 0.59321E-01
  rms(prec ) = 0.60860E-01
  weight for this iteration     100.00

 eigenvalues of (default mixing * dielectric matrix)
  average eigenvalue GAMMA=   0.8781
  2.4153  1.2693  1.1165  0.8720  0.8720  0.5999  0.5999  0.4245  0.3720  0.2402

 Free energy of the ion-electron system (eV)
  ---------------------------------------------------
  alpha Z        PSCENC =      2130.86679331
  Ewald energy   TEWEN  =   1836093.97610723
  -Hartree energ DENC   =  -2046590.83216801
  -exchange      EXHF   =         0.00000000
  -V(xc)+E(xc)   XCENC  =      6108.74067041
  PAW double counting   =    210172.27718172  -218637.32672493
  entropy T*S    EENTRO =        -0.01032732
  eigenvalues    EBANDS =    -27628.24971580
  atomic energy  EATOM  =    238129.79099658
  Solvation  Ediel_sol  =         0.00000000
  ---------------------------------------------------
  free energy    TOTEN  =      -220.76718680 eV

  energy without entropy =     -220.75685949  energy(sigma->0) =     -220.76374436


--------------------------------------------------------------------------------------------------------




--------------------------------------- Iteration      1(  16)  ---------------------------------------


    POTLOK:  cpu time      0.0214: real time      0.0221
    SETDIJ:  cpu time      0.0485: real time      0.0486
     EDDAV:  cpu time     11.5482: real time     11.5714
       DOS:  cpu time      0.0012: real time      0.0012
    CHARGE:  cpu time      0.4656: real time      0.4665
    MIXING:  cpu time      0.0528: real time      0.0529
    --------------------------------------------
      LOOP:  cpu time     12.1377: real time     12.1626

 eigenvalue-minimisations  :  5248
 total energy-change (2. order) : 0.5643796E-03  (-0.3499982E-03)
 number of electron    1039.9998267 magnetization 
 augmentation part      639.6705786 magnetization 

 Broyden mixing:
  rms(total) = 0.40073E-01    rms(broyden)= 0.40069E-01
  rms(prec ) = 0.40672E-01
  weight for this iteration     100.00

 eigenvalues of (default mixing * dielectric matrix)
  average eigenvalue GAMMA=   0.9594
  2.1385  2.1385  1.6013  0.9337  0.9337  0.6680  0.5569  0.5569  0.2398  0.4332
  0.3533

 Free energy of the ion-electron system (eV)
  ---------------------------------------------------
  alpha Z        PSCENC =      2130.86679331
  Ewald energy   TEWEN  =   1836093.97610723
  -Hartree energ DENC   =  -2046605.37531375
  -exchange      EXHF   =         0.00000000
  -V(xc)+E(xc)   XCENC  =      6108.82866788
  PAW double counting   =    210167.10871029  -218632.89878662
  entropy T*S    EENTRO =        -0.01173750
  eigenvalues    EBANDS =    -27613.05205986
  atomic energy  EATOM  =    238129.79099658
  Solvation  Ediel_sol  =         0.00000000
  ---------------------------------------------------
  free energy    TOTEN  =      -220.76662242 eV

  energy without entropy =     -220.75488493  energy(sigma->0) =     -220.76270993


--------------------------------------------------------------------------------------------------------




--------------------------------------- Iteration      1(  17)  ---------------------------------------


    POTLOK:  cpu time      0.0210: real time      0.0212
    SETDIJ:  cpu time      0.0483: real time      0.0484
     EDDAV:  cpu time     11.7380: real time     11.7618
       DOS:  cpu time      0.0012: real time      0.0012
    CHARGE:  cpu time      0.4674: real time      0.4687
    MIXING:  cpu time      0.0544: real time      0.0545
    --------------------------------------------
      LOOP:  cpu time     12.3302: real time     12.3558

 eigenvalue-minimisations  :  5360
 total energy-change (2. order) :-0.5246087E-03  (-0.1899810E-03)
 number of electron    1039.9998267 magnetization 
 augmentation part      639.6333551 magnetization 

 Broyden mixing:
  rms(total) = 0.23132E-01    rms(broyden)= 0.23129E-01
  rms(prec ) = 0.23554E-01
  weight for this iteration     100.00

 eigenvalues of (default mixing * dielectric matrix)
  average eigenvalue GAMMA=   0.9632
  2.5007  2.5007  1.3561  0.9632  0.9632  0.6247  0.5895  0.5895  0.2398  0.4389
  0.4389  0.3533

 Free energy of the ion-electron system (eV)
  ---------------------------------------------------
  alpha Z        PSCENC =      2130.86679331
  Ewald energy   TEWEN  =   1836093.97610723
  -Hartree energ DENC   =  -2046624.20126630
  -exchange      EXHF   =         0.00000000
  -V(xc)+E(xc)   XCENC  =      6108.90275930
  PAW double counting   =    210176.19647963  -218642.90065823
  entropy T*S    EENTRO =        -0.01247826
  eigenvalues    EBANDS =    -27593.38588030
  atomic energy  EATOM  =    238129.79099658
  Solvation  Ediel_sol  =         0.00000000
  ---------------------------------------------------
  free energy    TOTEN  =      -220.76714703 eV

  energy without entropy =     -220.75466877  energy(sigma->0) =     -220.76298761


--------------------------------------------------------------------------------------------------------




--------------------------------------- Iteration      1(  18)  ---------------------------------------


    POTLOK:  cpu time      0.0209: real time      0.0211
    SETDIJ:  cpu time      0.0487: real time      0.0488
     EDDAV:  cpu time     11.4660: real time     11.4906
       DOS:  cpu time      0.0012: real time      0.0011
    CHARGE:  cpu time      0.4620: real time      0.4629
    MIXING:  cpu time      0.0561: real time      0.0562
    --------------------------------------------
      LOOP:  cpu time     12.0549: real time     12.0808

 eigenvalue-minimisations  :  5208
 total energy-change (2. order) :-0.3475652E-03  (-0.1105572E-03)
 number of electron    1039.9998266 magnetization 
 augmentation part      639.6234635 magnetization 

 Broyden mixing:
  rms(total) = 0.16664E-01    rms(broyden)= 0.16663E-01
  rms(prec ) = 0.16971E-01
  weight for this iteration     100.00

 eigenvalues of (default mixing * dielectric matrix)
  average eigenvalue GAMMA=   0.9526
  2.4519  2.4519  1.4526  0.9858  0.9858  0.7354  0.7354  0.5750  0.5750  0.2398
  0.4667  0.3529  0.3757

 Free energy of the ion-electron system (eV)
  ---------------------------------------------------
  alpha Z        PSCENC =      2130.86679331
  Ewald energy   TEWEN  =   1836093.97610723
  -Hartree energ DENC   =  -2046631.30444957
  -exchange      EXHF   =         0.00000000
  -V(xc)+E(xc)   XCENC  =      6108.91490940
  PAW double counting   =    210186.19079566  -218653.29231186
  entropy T*S    EENTRO =        -0.01221984
  eigenvalues    EBANDS =    -27585.89811551
  atomic energy  EATOM  =    238129.79099658
  Solvation  Ediel_sol  =         0.00000000
  ---------------------------------------------------
  free energy    TOTEN  =      -220.76749460 eV

  energy without entropy =     -220.75527476  energy(sigma->0) =     -220.76342132


--------------------------------------------------------------------------------------------------------




--------------------------------------- Iteration      1(  19)  ---------------------------------------


    POTLOK:  cpu time      0.0213: real time      0.0214
    SETDIJ:  cpu time      0.0480: real time      0.0481
     EDDAV:  cpu time     11.2020: real time     11.2243
       DOS:  cpu time      0.0011: real time      0.0011
    CHARGE:  cpu time      0.4609: real time      0.4617
    MIXING:  cpu time      0.0569: real time      0.0570
    --------------------------------------------
      LOOP:  cpu time     11.7901: real time     11.8136

 eigenvalue-minimisations  :  5056
 total energy-change (2. order) :-0.3749488E-03  (-0.5077835E-04)
 number of electron    1039.9998267 magnetization 
 augmentation part      639.6430797 magnetization 

 Broyden mixing:
  rms(total) = 0.95527E-02    rms(broyden)= 0.95524E-02
  rms(prec ) = 0.98925E-02
  weight for this iteration     100.00

 eigenvalues of (default mixing * dielectric matrix)
  average eigenvalue GAMMA=   0.9163
  2.4586  2.4586  1.5018  0.9574  0.9574  0.7961  0.7961  0.5639  0.5639  0.5017
  0.2398  0.3714  0.3311  0.3311

 Free energy of the ion-electron system (eV)
  ---------------------------------------------------
  alpha Z        PSCENC =      2130.86679331
  Ewald energy   TEWEN  =   1836093.97610723
  -Hartree energ DENC   =  -2046633.41839188
  -exchange      EXHF   =         0.00000000
  -V(xc)+E(xc)   XCENC  =      6108.85138978
  PAW double counting   =    210189.34786939  -218656.25598415
  entropy T*S    EENTRO =        -0.01227951
  eigenvalues    EBANDS =    -27583.91437030
  atomic energy  EATOM  =    238129.79099658
  Solvation  Ediel_sol  =         0.00000000
  ---------------------------------------------------
  free energy    TOTEN  =      -220.76786955 eV

  energy without entropy =     -220.75559004  energy(sigma->0) =     -220.76377638


--------------------------------------------------------------------------------------------------------




--------------------------------------- Iteration      1(  20)  ---------------------------------------


    POTLOK:  cpu time      0.0211: real time      0.0220
    SETDIJ:  cpu time      0.0482: real time      0.0482
     EDDAV:  cpu time     10.5390: real time     10.5600
       DOS:  cpu time      0.0011: real time      0.0011
    CHARGE:  cpu time      0.4636: real time      0.4645
    MIXING:  cpu time      0.0584: real time      0.0585
    --------------------------------------------
      LOOP:  cpu time     11.1313: real time     11.1544

 eigenvalue-minimisations  :  4664
 total energy-change (2. order) :-0.3803894E-03  (-0.1169498E-04)
 number of electron    1039.9998267 magnetization 
 augmentation part      639.6488111 magnetization 

 Broyden mixing:
  rms(total) = 0.60784E-02    rms(broyden)= 0.60782E-02
  rms(prec ) = 0.64708E-02
  weight for this iteration     100.00

 eigenvalues of (default mixing * dielectric matrix)
  average eigenvalue GAMMA=   0.9853
  2.5310  2.5310  1.8180  1.2709  1.2709  0.8288  0.8288  0.7831  0.5726  0.5726
  0.2398  0.4342  0.3526  0.3722  0.3722

 Free energy of the ion-electron system (eV)
  ---------------------------------------------------
  alpha Z        PSCENC =      2130.86679331
  Ewald energy   TEWEN  =   1836093.97610723
  -Hartree energ DENC   =  -2046636.24795293
  -exchange      EXHF   =         0.00000000
  -V(xc)+E(xc)   XCENC  =      6108.84258229
  PAW double counting   =    210192.80299819  -218659.64757244
  entropy T*S    EENTRO =        -0.01225701
  eigenvalues    EBANDS =    -27581.13994517
  atomic energy  EATOM  =    238129.79099658
  Solvation  Ediel_sol  =         0.00000000
  ---------------------------------------------------
  free energy    TOTEN  =      -220.76824994 eV

  energy without entropy =     -220.75599293  energy(sigma->0) =     -220.76416427


--------------------------------------------------------------------------------------------------------




--------------------------------------- Iteration      1(  21)  ---------------------------------------


    POTLOK:  cpu time      0.0210: real time      0.0212
    SETDIJ:  cpu time      0.0483: real time      0.0484
     EDDAV:  cpu time     10.9252: real time     10.9472
       DOS:  cpu time      0.0011: real time      0.0011
    CHARGE:  cpu time      0.4607: real time      0.4616
    MIXING:  cpu time      0.0595: real time      0.0596
    --------------------------------------------
      LOOP:  cpu time     11.5158: real time     11.5390

 eigenvalue-minimisations  :  4896
 total energy-change (2. order) :-0.1248618E-02  (-0.2440730E-04)
 number of electron    1039.9998267 magnetization 
 augmentation part      639.6579465 magnetization 

[...]
   0.849E-04 0.376E+03 -.691E+04   -.725E-11 -.374E+03 0.691E+04   -.139E-16 -.161E+01 0.534E+00   -.338E-06 0.341E-02 0.299E-04
   0.849E-04 0.376E+03 -.691E+04   -.729E-11 -.374E+03 0.691E+04   -.416E-16 -.161E+01 0.534E+00   -.338E-06 0.341E-02 0.299E-04
   0.849E-04 0.376E+03 -.691E+04   -.737E-11 -.374E+03 0.691E+04   -.139E-16 -.161E+01 0.534E+00   -.338E-06 0.341E-02 0.299E-04
   0.849E-04 0.376E+03 -.691E+04   -.739E-11 -.374E+03 0.691E+04   -.416E-16 -.161E+01 0.534E+00   -.338E-06 0.341E-02 0.299E-04
   -.204E-03 -.378E+03 -.692E+04   -.499E-11 0.376E+03 0.692E+04   0.278E-16 0.149E+01 0.439E+00   -.210E-06 -.125E-01 0.268E-02
   -.204E-03 -.378E+03 -.692E+04   -.169E-10 0.376E+03 0.692E+04   0.278E-16 0.149E+01 0.439E+00   -.210E-06 -.125E-01 0.268E-02
   -.204E-03 -.378E+03 -.692E+04   -.497E-11 0.376E+03 0.692E+04   0.278E-16 0.149E+01 0.439E+00   -.210E-06 -.125E-01 0.268E-02
   -.204E-03 -.378E+03 -.692E+04   0.686E-11 0.376E+03 0.692E+04   0.278E-16 0.149E+01 0.439E+00   -.210E-06 -.125E-01 0.268E-02
   0.347E-04 -.112E+03 -.383E+04   0.246E-10 0.112E+03 0.383E+04   0.347E-17 0.975E-01 0.128E+01   -.870E-04 0.112E+00 -.127E+00
   0.347E-04 -.112E+03 -.383E+04   0.246E-10 0.112E+03 0.383E+04   -.165E-16 0.975E-01 0.128E+01   -.870E-04 0.112E+00 -.127E+00
   0.347E-04 -.112E+03 -.383E+04   0.245E-10 0.112E+03 0.383E+04   -.121E-16 0.975E-01 0.128E+01   -.870E-04 0.112E+00 -.127E+00
   0.347E-04 -.112E+03 -.383E+04   0.246E-10 0.112E+03 0.383E+04   -.781E-17 0.975E-01 0.128E+01   -.870E-04 0.112E+00 -.127E+00
   -.195E-04 -.227E+02 0.100E+05   0.711E-11 0.226E+02 -.999E+04   -.867E-18 0.667E-01 -.352E+01   -.418E-06 0.695E-03 -.114E-01
   -.978E-04 0.467E+03 -.417E+04   -.153E-10 -.467E+03 0.417E+04   -.139E-16 -.731E+00 0.296E+01   0.891E-04 -.512E-01 0.167E-01
   -.978E-04 0.467E+03 -.417E+04   -.155E-10 -.467E+03 0.417E+04   0.000E+00 -.731E+00 0.296E+01   0.891E-04 -.512E-01 0.167E-01
   -.978E-04 0.467E+03 -.417E+04   -.153E-10 -.467E+03 0.417E+04   0.000E+00 -.731E+00 0.296E+01   0.891E-04 -.512E-01 0.167E-01
   -.978E-04 0.467E+03 -.417E+04   -.155E-10 -.467E+03 0.417E+04   0.694E-17 -.731E+00 0.296E+01   0.891E-04 -.512E-01 0.167E-01
   0.203E-03 0.916E+02 -.470E+04   0.179E-10 -.916E+02 0.470E+04   -.117E-16 -.180E-01 0.489E+01   0.970E-04 -.521E-01 0.586E-01
   0.203E-03 0.916E+02 -.470E+04   0.180E-10 -.916E+02 0.470E+04   -.976E-17 -.180E-01 0.489E+01   0.970E-04 -.521E-01 0.586E-01
   0.213E-03 -.448E+03 -.437E+04   -.413E-11 0.448E+03 0.437E+04   -.139E-16 0.491E+00 0.379E+01   -.987E-04 0.857E-01 0.773E-01
   0.213E-03 -.448E+03 -.437E+04   -.936E-11 0.448E+03 0.437E+04   -.139E-16 0.491E+00 0.379E+01   -.987E-04 0.857E-01 0.773E-01
   0.213E-03 -.448E+03 -.437E+04   -.424E-11 0.448E+03 0.437E+04   -.694E-17 0.491E+00 0.379E+01   -.987E-04 0.857E-01 0.773E-01
   0.203E-03 0.916E+02 -.470E+04   0.181E-10 -.916E+02 0.470E+04   -.824E-17 -.180E-01 0.489E+01   0.970E-04 -.521E-01 0.586E-01
   -.240E-04 0.592E+03 -.104E+05   0.448E-11 -.590E+03 0.104E+05   0.555E-16 -.184E+01 0.220E+01   0.388E-04 -.240E-01 -.176E-01
   -.240E-04 0.592E+03 -.104E+05   0.439E-11 -.590E+03 0.104E+05   0.555E-16 -.184E+01 0.220E+01   0.388E-04 -.240E-01 -.176E-01
   -.240E-04 0.592E+03 -.104E+05   0.439E-11 -.590E+03 0.104E+05   0.555E-16 -.184E+01 0.220E+01   0.388E-04 -.240E-01 -.176E-01
   -.240E-04 0.592E+03 -.104E+05   0.430E-11 -.590E+03 0.104E+05   0.555E-16 -.184E+01 0.220E+01   0.388E-04 -.240E-01 -.176E-01
   0.836E-04 -.589E+03 -.104E+05   0.711E-11 0.587E+03 0.104E+05   0.833E-16 0.211E+01 0.213E+01   0.405E-04 -.477E-01 0.292E-02
   0.836E-04 -.589E+03 -.104E+05   0.712E-11 0.587E+03 0.104E+05   0.833E-16 0.211E+01 0.213E+01   0.405E-04 -.477E-01 0.292E-02
   0.213E-03 -.448E+03 -.437E+04   -.942E-11 0.448E+03 0.437E+04   -.278E-16 0.491E+00 0.379E+01   -.987E-04 0.857E-01 0.773E-01
   0.203E-03 0.916E+02 -.470E+04   0.178E-10 -.916E+02 0.470E+04   -.802E-17 -.180E-01 0.489E+01   0.970E-04 -.521E-01 0.586E-01
   -.864E-04 -.121E+03 0.296E+04   -.350E-11 0.121E+03 -.296E+04   -.607E-17 0.865E-01 -.118E+01   -.887E-06 0.272E-01 -.141E-01
   -.864E-04 -.121E+03 0.296E+04   -.352E-11 0.121E+03 -.296E+04   -.260E-17 0.865E-01 -.118E+01   -.887E-06 0.272E-01 -.141E-01
   -.195E-04 -.227E+02 0.100E+05   0.716E-11 0.226E+02 -.999E+04   -.173E-17 0.667E-01 -.352E+01   -.418E-06 0.695E-03 -.114E-01
   -.195E-04 -.227E+02 0.100E+05   0.700E-11 0.226E+02 -.999E+04   0.173E-17 0.667E-01 -.352E+01   -.418E-06 0.695E-03 -.114E-01
   -.195E-04 -.227E+02 0.100E+05   0.672E-11 0.226E+02 -.999E+04   -.434E-17 0.667E-01 -.352E+01   -.418E-06 0.695E-03 -.114E-01
   -.179E-04 0.190E+02 0.999E+04   0.707E-11 -.190E+02 -.999E+04   0.108E-17 0.127E-01 -.355E+01   0.194E-06 -.131E-01 -.166E-01
   -.179E-04 0.190E+02 0.999E+04   0.699E-11 -.190E+02 -.999E+04   0.434E-17 0.127E-01 -.355E+01   0.194E-06 -.131E-01 -.166E-01
   -.179E-04 0.190E+02 0.999E+04   0.705E-11 -.190E+02 -.999E+04   0.737E-17 0.127E-01 -.355E+01   0.194E-06 -.131E-01 -.166E-01
   -.179E-04 0.190E+02 0.999E+04   0.683E-11 -.190E+02 -.999E+04   0.304E-17 0.127E-01 -.355E+01   0.194E-06 -.131E-01 -.166E-01
   0.164E-04 0.227E+02 0.100E+05   0.705E-11 -.226E+02 -.100E+05   -.520E-17 -.119E+00 -.332E+01   0.438E-06 -.596E-02 -.164E-01
   0.164E-04 0.227E+02 0.100E+05   0.695E-11 -.226E+02 -.100E+05   0.173E-17 -.119E+00 -.332E+01   0.438E-06 -.596E-02 -.164E-01
   0.164E-04 0.227E+02 0.100E+05   0.686E-11 -.226E+02 -.100E+05   -.347E-17 -.119E+00 -.332E+01   0.438E-06 -.596E-02 -.164E-01
   0.164E-04 0.227E+02 0.100E+05   0.686E-11 -.226E+02 -.100E+05   -.347E-17 -.119E+00 -.332E+01   0.438E-06 -.596E-02 -.164E-01
   0.159E-04 -.191E+02 0.100E+05   0.702E-11 0.190E+02 -.100E+05   0.000E+00 0.101E+00 -.329E+01   -.229E-06 0.183E-01 -.602E-02
   0.159E-04 -.191E+02 0.100E+05   0.704E-11 0.190E+02 -.100E+05   -.867E-18 0.101E+00 -.329E+01   -.229E-06 0.183E-01 -.602E-02
   0.159E-04 -.191E+02 0.100E+05   0.717E-11 0.190E+02 -.100E+05   0.173E-17 0.101E+00 -.329E+01   -.229E-06 0.183E-01 -.602E-02
   0.159E-04 -.191E+02 0.100E+05   0.693E-11 0.190E+02 -.100E+05   -.867E-18 0.101E+00 -.329E+01   -.229E-06 0.183E-01 -.602E-02
   -.103E-03 -.454E+02 0.280E+04   -.222E-10 0.454E+02 -.280E+04   -.520E-17 0.858E-01 -.120E+01   -.438E-06 -.131E-01 -.239E-01
   -.103E-03 -.454E+02 0.280E+04   -.226E-10 0.454E+02 -.280E+04   0.260E-17 0.858E-01 -.120E+01   -.438E-06 -.131E-01 -.239E-01
   -.103E-03 -.454E+02 0.280E+04   -.225E-10 0.454E+02 -.280E+04   -.347E-17 0.858E-01 -.120E+01   -.438E-06 -.131E-01 -.239E-01
   -.103E-03 -.454E+02 0.280E+04   -.223E-10 0.454E+02 -.280E+04   -.954E-17 0.858E-01 -.120E+01   -.438E-06 -.131E-01 -.239E-01
   -.818E-04 0.124E+03 0.287E+04   -.877E-11 -.124E+03 -.287E+04   -.867E-17 -.602E-01 -.121E+01   0.106E-05 -.153E-01 -.260E-01
   -.818E-04 0.124E+03 0.287E+04   -.887E-11 -.124E+03 -.287E+04   -.126E-16 -.602E-01 -.121E+01   0.106E-05 -.153E-01 -.260E-01
   -.818E-04 0.124E+03 0.287E+04   -.889E-11 -.124E+03 -.287E+04   0.000E+00 -.602E-01 -.121E+01   0.106E-05 -.153E-01 -.260E-01
   -.818E-04 0.124E+03 0.287E+04   -.896E-11 -.124E+03 -.287E+04   -.304E-17 -.602E-01 -.121E+01   0.106E-05 -.153E-01 -.260E-01
   -.106E-03 0.428E+02 0.304E+04   -.126E-10 -.427E+02 -.304E+04   -.260E-17 -.928E-01 -.118E+01   0.510E-06 0.451E-02 -.278E-01
   -.106E-03 0.428E+02 0.304E+04   -.126E-10 -.427E+02 -.304E+04   0.113E-16 -.928E-01 -.118E+01   0.510E-06 0.451E-02 -.278E-01
   -.106E-03 0.428E+02 0.304E+04   -.126E-10 -.427E+02 -.304E+04   0.867E-18 -.928E-01 -.118E+01   0.510E-06 0.451E-02 -.278E-01
   -.106E-03 0.428E+02 0.304E+04   -.127E-10 -.427E+02 -.304E+04   -.867E-17 -.928E-01 -.118E+01   0.510E-06 0.451E-02 -.278E-01
   -.864E-04 -.121E+03 0.296E+04   -.324E-11 0.121E+03 -.296E+04   -.694E-17 0.865E-01 -.118E+01   -.887E-06 0.272E-01 -.141E-01
   -.864E-04 -.121E+03 0.296E+04   -.352E-11 0.121E+03 -.296E+04   -.434E-17 0.865E-01 -.118E+01   -.887E-06 0.272E-01 -.141E-01
   0.836E-04 -.589E+03 -.104E+05   0.711E-11 0.587E+03 0.104E+05   0.833E-16 0.211E+01 0.213E+01   0.405E-04 -.477E-01 0.292E-02
   0.836E-04 -.589E+03 -.104E+05   0.711E-11 0.587E+03 0.104E+05   0.833E-16 0.211E+01 0.213E+01   0.405E-04 -.477E-01 0.292E-02
 -----------------------------------------------------------------------------------------------
   -.354E-03 -.471E+00 0.370E+01   0.637E-12 -.796E-12 0.113E-09   0.356E-15 0.294E+00 -.828E+00   0.317E-03 0.661E-01 -.516E+00
 
 
 POSITION                                       TOTAL-FORCE (eV/Angst)
 -----------------------------------------------------------------------------------
      6.42583      2.34141     21.41020        -0.000000     -0.009238      0.008499
     11.56650      2.34141     21.41020        -0.000000     -0.009238      0.008499
      3.85550      2.34141     21.41020        -0.000000     -0.009238      0.008499
      8.99617      2.34141     21.41020        -0.000000     -0.009238      0.008499
      5.14067      8.77670     21.41207        -0.000000      0.000322      0.004224
      7.71100      8.77670     21.41207        -0.000000      0.000322      0.004224
     10.28133      8.77670     21.41207        -0.000000      0.000322      0.004224
     12.85167      8.77670     21.41207        -0.000000      0.000322      0.004224
     10.28133      5.93610     19.08204        -0.000000     -0.007524      0.005810
      7.71100      5.93610     19.08204        -0.000000     -0.007524      0.005810
      5.14067      5.93610     19.08204        -0.000000     -0.007524      0.005810
     12.85167      5.93610     19.08204        -0.000000     -0.007524      0.005810
      0.00000      0.00000     15.00000        -0.000000      0.007572      0.328518
      8.99617      3.72259     19.09899        -0.000000      0.002193     -0.004624
      6.42583      3.72259     19.09899        -0.000000      0.002193     -0.004624
      3.85550      3.72259     19.09899        -0.000000      0.002193     -0.004624
     11.56650      3.72259     19.09899        -0.000000      0.002193     -0.004624
      7.71100      1.47803     19.11955        -0.000000      0.005516      0.005022
      5.14067      1.47803     19.11955        -0.000000      0.005516      0.005022
     14.13683      8.14841     19.09281        -0.000000      0.001766      0.006688
      6.42583      8.14841     19.09281        -0.000000      0.001766      0.006688
     11.56650      8.14841     19.09281        -0.000000      0.001766      0.006688
      2.57033      1.47803     19.11955        -0.000000      0.005516      0.005022
     12.85167      4.54480     21.15442        -0.000000     -0.005229     -0.002268
      5.14067      4.54480     21.15442        -0.000000     -0.005229     -0.002268
      7.71100      4.54480     21.15442        -0.000000     -0.005229     -0.002268
     10.28133      4.54480     21.15442        -0.000000     -0.005229     -0.002268
      3.85550      6.57770     21.14979        -0.000000     -0.002053      0.001515
      6.42583      6.57770     21.14979        -0.000000     -0.002053      0.001515
      8.99617      8.14841     19.09281        -0.000000      0.001766      0.006688
     10.28133      1.47803     19.11955        -0.000000      0.005516      0.005022
     12.85167      7.41991     17.09867        -0.000000      0.027749     -0.380985
     10.28133      7.41991     17.09867        -0.000000      0.027749     -0.380985
      2.57033      0.00000     15.00000        -0.000000      0.007572      0.328518
      5.14067      0.00000     15.00000        -0.000000      0.007572      0.328518
      7.71100      0.00000     15.00000        -0.000000      0.007572      0.328518
      1.28517      2.22597     15.00000        -0.000000      0.008489      0.308694
      3.85550      2.22597     15.00000        -0.000000      0.008489      0.308694
      6.42583      2.22597     15.00000        -0.000000      0.008489      0.308694
      8.99617      2.22597     15.00000        -0.000000      0.008489      0.308694
      2.57033      4.45195     15.00000         0.000000      0.006333      0.316344
      5.14067      4.45195     15.00000         0.000000      0.006333      0.316344
      7.71100      4.45195     15.00000         0.000000      0.006333      0.316344
     10.28133      4.45195     15.00000         0.000000      0.006333      0.316344
      3.85550      6.67792     15.00000        -0.000000     -0.011425      0.314063
      6.42583      6.67792     15.00000        -0.000000     -0.011425      0.314063
      8.99617      6.67792     15.00000        -0.000000     -0.011425      0.314063
     11.56650      6.67792     15.00000        -0.000000     -0.011425      0.314063
      1.28517      0.74199     17.09867        -0.000000      0.025635     -0.232016
      3.85550      0.74199     17.09867        -0.000000      0.025635     -0.232016
      6.42583      0.74199     17.09867        -0.000000      0.025635     -0.232016
      8.99617      0.74199     17.09867        -0.000000      0.025635     -0.232016
      2.57033      2.96797     17.09867         0.000000     -0.019461     -0.274712
      5.14067      2.96797     17.09867         0.000000     -0.019461     -0.274712
      7.71100      2.96797     17.09867         0.000000     -0.019461     -0.274712
     10.28133      2.96797     17.09867         0.000000     -0.019461     -0.274712
      3.85550      5.19394     17.09867         0.000000     -0.030646     -0.404774
      6.42583      5.19394     17.09867         0.000000     -0.030646     -0.404774
      8.99617      5.19394     17.09867         0.000000     -0.030646     -0.404774
     11.56650      5.19394     17.09867         0.000000     -0.030646     -0.404774
      5.14067      7.41991     17.09867        -0.000000      0.027749     -0.380985
      7.71100      7.41991     17.09867        -0.000000      0.027749     -0.380985
      8.99617      6.57770     21.14979        -0.000000     -0.002053      0.001515
     11.56650      6.57770     21.14979        -0.000000     -0.002053      0.001515
 -----------------------------------------------------------------------------------
    total drift:                               -0.000036     -0.110949      2.358373


--------------------------------------------------------------------------------------------------------



  FREE ENERGIE OF THE ION-ELECTRON SYSTEM (eV)
  ---------------------------------------------------
  free  energy   TOTEN  =      -251.14675963 eV

  energy  without entropy=     -251.11619783  energy(sigma->0) =     -251.13657236
 d Force = 0.4351292E-03[ 0.844E-04, 0.786E-03]  d Energy = 0.9521882E-03-0.517E-03
 d Force = 0.1222718E+03[ 0.122E+03, 0.122E+03]  d Ewald  = 0.1222718E+03-0.654E-05
 


--------------------------------------------------------------------------------------------------------


    POTLOK:  cpu time      0.0757: real time      0.0759


--------------------------------------------------------------------------------------------------------


 Conjugate gradient step on ions:
 trial-energy change:   -0.000952  1 .order   -0.000435   -0.000786   -0.000084
  (g-gl).g = 0.389E-03      g.g   = 0.405E-03  gl.gl    = 0.162E-02
 g(Force)  = 0.405E-03   g(Stress)= 0.000E+00 ortho     = 0.796E-04
 gamma     =   0.23943
 trial     =   1.85394
 opt step  =   1.89434  (harmonic =   2.07686) maximal distance =0.00211851
 next E    =  -251.146761   (d E  =  -0.00095)


--------------------------------------------------------------------------------------------------------


  
 reached required accuracy - stopping structural energy minimisation
 writing wavefunctions
     LOOP+:  cpu time     85.1015: real time     85.4127
    4ORBIT:  cpu time      0.0000: real time      0.0000



 total charge

# of ion       s       p       d       tot
------------------------------------------
    1        0.664   0.403   8.732   9.799
    2        0.664   0.403   8.732   9.799
    3        0.664   0.403   8.732   9.799
    4        0.664   0.403   8.732   9.799
    5        0.665   0.400   8.733   9.798
    6        0.665   0.400   8.733   9.798
    7        0.665   0.400   8.733   9.798
    8        0.665   0.400   8.733   9.798
    9        0.300   6.202   8.865  15.367
   10        0.300   6.202   8.865  15.367
   11        0.300   6.202   8.865  15.367
   12        0.300   6.202   8.865  15.367
   13        0.297   6.137   8.884  15.318
   14        0.291   6.190   8.876  15.356
   15        0.291   6.190   8.876  15.356
   16        0.291   6.190   8.876  15.356
   17        0.291   6.190   8.876  15.356
   18        0.282   6.174   8.889  15.345
   19        0.282   6.174   8.889  15.345
   20        0.288   6.185   8.884  15.357
   21        0.288   6.185   8.884  15.357
   22        0.288   6.185   8.884  15.357
   23        0.282   6.174   8.889  15.345
   24        0.306   6.171   8.887  15.363
   25        0.306   6.171   8.887  15.363
   26        0.306   6.171   8.887  15.363
   27        0.306   6.171   8.887  15.363
   28        0.306   6.170   8.886  15.363
   29        0.306   6.170   8.886  15.363
   30        0.288   6.185   8.884  15.357
   31        0.282   6.174   8.889  15.345
   32        0.294   6.194   8.864  15.352
   33        0.294   6.194   8.864  15.352
   34        0.297   6.137   8.884  15.318
   35        0.297   6.137   8.884  15.318
   36        0.297   6.137   8.884  15.318
   37        0.298   6.137   8.883  15.318
   38        0.298   6.137   8.883  15.318
   39        0.298   6.137   8.883  15.318
   40        0.298   6.137   8.883  15.318
   41        0.298   6.137   8.883  15.318
   42        0.298   6.137   8.883  15.318
   43        0.298   6.137   8.883  15.318
   44        0.298   6.137   8.883  15.318
   45        0.297   6.137   8.884  15.318
   46        0.297   6.137   8.884  15.318
   47        0.297   6.137   8.884  15.318
   48        0.297   6.137   8.884  15.318
   49        0.292   6.190   8.866  15.348
   50        0.292   6.190   8.866  15.348
   51        0.292   6.190   8.866  15.348
   52        0.292   6.190   8.866  15.348
   53        0.293   6.190   8.866  15.349
   54        0.293   6.190   8.866  15.349
   55        0.293   6.190   8.866  15.349
   56        0.293   6.190   8.866  15.349
   57        0.294   6.193   8.866  15.353
   58        0.294   6.193   8.866  15.353
   59        0.294   6.193   8.866  15.353
   60        0.294   6.193   8.866  15.353
   61        0.294   6.194   8.864  15.352
   62        0.294   6.194   8.864  15.352
   63        0.306   6.170   8.886  15.363
   64        0.306   6.170   8.886  15.363
--------------------------------------------------
tot         21.851 348.846 566.991 937.688
 

 total amount of memory used by VASP MPI-rank0  2846305. kBytes
=======================================================================

   base                                    :      30000. kBytes
   nonlr-proj                              :      14369. kBytes
   fftplans                                :     123120. kBytes
   grid                                    :     220440. kBytes
   one-center                              :        995. kBytes
   wavefun                                 :    2457381. kBytes
 
  
  
 General timing and accounting informations for this job:
 ========================================================
  
                  Total CPU time used (sec):     2994.006
                            User time (sec):     2984.020
                          System time (sec):        9.986
                         Elapsed time (sec):     3001.135
  
                   Maximum memory used (kb):     4513228.
                   Average memory used (kb):          N/A
  
                          Minor page faults:      2024713
                          Major page faults:          103
                 Voluntary context switches:        60207
