Cu-Au(111) 4x4 slab relaxation          
            1
    10.281333    0.000000    0.000000
     5.140666    8.903895    0.000000
     0.000000    0.000000   36.296005
   Au   Cu
     8    56
Direct configuration=     1
   0.50021589  0.24956821  0.58844428
   0.00021589  0.24956821  0.58844428
   0.25021589  0.24956821  0.58844428
   0.75021589  0.24956821  0.58844428
   0.00515629  0.98968742  0.58302962
   0.25515629  0.98968742  0.58302962
   0.50515629  0.98968742  0.58302962
   0.75515629  0.98968742  0.58302962
   0.66651358  0.66697285  0.52629768
   0.41651358  0.66697285  0.52629768
   0.16651358  0.66697285  0.52629768
   0.91651358  0.66697285  0.52629768
   0.00000000  0.00000000  0.41326863
   0.66580791  0.41838418  0.52652043
   0.41580791  0.41838418  0.52652043
   0.16580791  0.41838418  0.52652043
   0.91580791  0.41838418  0.52652043
   0.66775895  0.16448209  0.52604372
   0.41775895  0.16448209  0.52604372
   0.91717436  0.91565128  0.52629789
   0.16717436  0.91565128  0.52629789
   0.66717436  0.91565128  0.52629789
   0.16775895  0.16448209  0.52604372
   0.99507758  0.50984485  0.58309876
   0.24507758  0.50984485  0.58309876
   0.49507758  0.50984485  0.58309876
   0.74507758  0.50984485  0.58309876
   0.00011752  0.74976496  0.58255171
   0.25011752  0.74976496  0.58255171
   0.41717436  0.91565128  0.52629789
   0.91775895  0.16448209  0.52604372
   0.83333333  0.83333333  0.47108954
   0.58333333  0.83333333  0.47108954
   0.25000000  0.00000000  0.41326863
   0.50000000  0.00000000  0.41326863
   0.75000000  0.00000000  0.41326863
   0.00000000  0.25000000  0.41326863
   0.25000000  0.25000000  0.41326863
   0.50000000  0.25000000  0.41326863
   0.75000000  0.25000000  0.41326863
   0.00000000  0.50000000  0.41326863
   0.25000000  0.50000000  0.41326863
   0.50000000  0.50000000  0.41326863
   0.75000000  0.50000000  0.41326863
   0.00000000  0.75000000  0.41326863
   0.25000000  0.75000000  0.41326863
   0.50000000  0.75000000  0.41326863
   0.75000000  0.75000000  0.41326863
   0.08333333  0.08333333  0.47108954
   0.33333333  0.08333333  0.47108954
   0.58333333  0.08333333  0.47108954
   0.83333333  0.08333333  0.47108954
   0.08333333  0.33333333  0.47108954
   0.33333333  0.33333333  0.47108954
   0.58333333  0.33333333  0.47108954
   0.83333333  0.33333333  0.47108954
   0.08333333  0.58333333  0.47108954
   0.33333333  0.58333333  0.47108954
   0.58333333  0.58333333  0.47108954
   0.83333333  0.58333333  0.47108954
   0.08333333  0.83333333  0.47108954
   0.33333333  0.83333333  0.47108954
   0.50011752  0.74976496  0.58255171
   0.75011752  0.74976496  0.58255171
Direct configuration=     2
   0.49520038  0.25959925  0.58880915
   0.99520038  0.25959925  0.58880915
   0.24520038  0.25959925  0.58880915
   0.74520038  0.25959925  0.58880915
   0.00650585  0.98698829  0.58503253
   0.25650585  0.98698829  0.58503253
   0.50650585  0.98698829  0.58503253
   0.75650585  0.98698829  0.58503253
   0.66670153  0.66659693  0.52622568
   0.41670153  0.66659693  0.52622568
   0.16670153  0.66659693  0.52622568
   0.91670153  0.66659693  0.52622568
   0.00000000  0.00000000  0.41326863
   0.66582074  0.41835851  0.52652850
   0.41582074  0.41835851  0.52652850
   0.16582074  0.41835851  0.52652850
   0.91582074  0.41835851  0.52652850
   0.66658758  0.16682485  0.52527348
   0.41658758  0.16682485  0.52527348
   0.91835760  0.91328479  0.52454149
   0.16835760  0.91328479  0.52454149
   0.66835760  0.91328479  0.52454149
   0.16658758  0.16682485  0.52527348
   0.99520642  0.50958717  0.58309576
   0.24520642  0.50958717  0.58309576
   0.49520642  0.50958717  0.58309576
   0.74520642  0.50958717  0.58309576
   0.00346388  0.74307224  0.58273409
   0.25346388  0.74307224  0.58273409
   0.41835760  0.91328479  0.52454149
   0.91658758  0.16682485  0.52527348
   0.83333333  0.83333333  0.47108954
   0.58333333  0.83333333  0.47108954
   0.25000000  0.00000000  0.41326863
   0.50000000  0.00000000  0.41326863
   0.75000000  0.00000000  0.41326863
   0.00000000  0.25000000  0.41326863
   0.25000000  0.25000000  0.41326863
   0.50000000  0.25000000  0.41326863
   0.75000000  0.25000000  0.41326863
   0.00000000  0.50000000  0.41326863
   0.25000000  0.50000000  0.41326863
   0.50000000  0.50000000  0.41326863
   0.75000000  0.50000000  0.41326863
   0.00000000  0.75000000  0.41326863
   0.25000000  0.75000000  0.41326863
   0.50000000  0.75000000  0.41326863
   0.75000000  0.75000000  0.41326863
   0.08333333  0.08333333  0.47108954
   0.33333333  0.08333333  0.47108954
   0.58333333  0.08333333  0.47108954
   0.83333333  0.08333333  0.47108954
   0.08333333  0.33333333  0.47108954
   0.33333333  0.33333333  0.47108954
   0.58333333  0.33333333  0.47108954
   0.83333333  0.33333333  0.47108954
   0.08333333  0.58333333  0.47108954
   0.33333333  0.58333333  0.47108954
   0.58333333  0.58333333  0.47108954
   0.83333333  0.58333333  0.47108954
   0.08333333  0.83333333  0.47108954
   0.33333333  0.83333333  0.47108954
   0.50346388  0.74307224  0.58273409
   0.75346388  0.74307224  0.58273409
Direct configuration=     3
   0.49349265  0.26301470  0.58893338
   0.99349265  0.26301470  0.58893338
   0.24349265  0.26301470  0.58893338
   0.74349265  0.26301470  0.58893338
   0.00696537  0.98606927  0.58571450
   0.25696537  0.98606927  0.58571450
   0.50696537  0.98606927  0.58571450
   0.75696537  0.98606927  0.58571450
   0.66676553  0.66646894  0.52620117
   0.41676553  0.66646894  0.52620117
   0.16676553  0.66646894  0.52620117
   0.91676553  0.66646894  0.52620117
   0.00000000  0.00000000  0.41326863
   0.66582512  0.41834977  0.52653125
   0.41582512  0.41834977  0.52653125
   0.16582512  0.41834977  0.52653125
   0.91582512  0.41834977  0.52653125
   0.66618873  0.16762253  0.52501121
   0.41618873  0.16762253  0.52501121
   0.91876049  0.91247903  0.52394346
   0.16876049  0.91247903  0.52394346
   0.66876049  0.91247903  0.52394346
   0.16618873  0.16762253  0.52501121
   0.99525028  0.50949943  0.58309474
   0.24525028  0.50949943  0.58309474
   0.49525028  0.50949943  0.58309474
   0.74525028  0.50949943  0.58309474
   0.00460328  0.74079345  0.58279619
   0.25460328  0.74079345  0.58279619
   0.41876049  0.91247903  0.52394346
   0.91618873  0.16762253  0.52501121
   0.83333333  0.83333333  0.47108954
   0.58333333  0.83333333  0.47108954
   0.25000000  0.00000000  0.41326863
   0.50000000  0.00000000  0.41326863
   0.75000000  0.00000000  0.41326863
   0.00000000  0.25000000  0.41326863
   0.25000000  0.25000000  0.41326863
   0.50000000  0.25000000  0.41326863
   0.75000000  0.25000000  0.41326863
   0.00000000  0.50000000  0.41326863
   0.25000000  0.50000000  0.41326863
   0.50000000  0.50000000  0.41326863
   0.75000000  0.50000000  0.41326863
   0.00000000  0.75000000  0.41326863
   0.25000000  0.75000000  0.41326863
   0.50000000  0.75000000  0.41326863
   0.75000000  0.75000000  0.41326863
   0.08333333  0.08333333  0.47108954
   0.33333333  0.08333333  0.47108954
   0.58333333  0.08333333  0.47108954
   0.83333333  0.08333333  0.47108954
   0.08333333  0.33333333  0.47108954
   0.33333333  0.33333333  0.47108954
   0.58333333  0.33333333  0.47108954
   0.83333333  0.33333333  0.47108954
   0.08333333  0.58333333  0.47108954
   0.33333333  0.58333333  0.47108954
   0.58333333  0.58333333  0.47108954
   0.83333333  0.58333333  0.47108954
   0.08333333  0.83333333  0.47108954
   0.33333333  0.83333333  0.47108954
   0.50460328  0.74079345  0.58279619
   0.75460328  0.74079345  0.58279619
Direct configuration=     4
   0.49355968  0.26288063  0.58904651
   0.99355968  0.26288063  0.58904651
   0.24355968  0.26288063  0.58904651
   0.74355968  0.26288063  0.58904651
   0.00646826  0.98706348  0.58621675
   0.25646826  0.98706348  0.58621675
   0.50646826  0.98706348  0.58621675
   0.75646826  0.98706348  0.58621675
   0.66702468  0.66595064  0.52609196
   0.41702468  0.66595064  0.52609196
   0.16702468  0.66595064  0.52609196
   0.91702468  0.66595064  0.52609196
   0.00000000  0.00000000  0.41326863
   0.66560398  0.41879204  0.52636606
   0.41560398  0.41879204  0.52636606
   0.16560398  0.41879204  0.52636606
   0.91560398  0.41879204  0.52636606
   0.66616249  0.16767502  0.52529688
   0.41616249  0.16767502  0.52529688
   0.91866868  0.91266265  0.52427732
   0.16866868  0.91266265  0.52427732
   0.66866868  0.91266265  0.52427732
   0.16616249  0.16767502  0.52529688
   0.99461024  0.51077953  0.58309113
   0.24461024  0.51077953  0.58309113
   0.49461024  0.51077953  0.58309113
   0.74461024  0.51077953  0.58309113
   0.00574197  0.73851606  0.58279231
   0.25574197  0.73851606  0.58279231
   0.41866868  0.91266265  0.52427732
   0.91616249  0.16767502  0.52529688
   0.83333333  0.83333333  0.47108954
   0.58333333  0.83333333  0.47108954
   0.25000000  0.00000000  0.41326863
   0.50000000  0.00000000  0.41326863
   0.75000000  0.00000000  0.41326863
   0.00000000  0.25000000  0.41326863
   0.25000000  0.25000000  0.41326863
   0.50000000  0.25000000  0.41326863
   0.75000000  0.25000000  0.41326863
   0.00000000  0.50000000  0.41326863
   0.25000000  0.50000000  0.41326863
   0.50000000  0.50000000  0.41326863
   0.75000000  0.50000000  0.41326863
   0.00000000  0.75000000  0.41326863
   0.25000000  0.75000000  0.41326863
   0.50000000  0.75000000  0.41326863
   0.75000000  0.75000000  0.41326863
   0.08333333  0.08333333  0.47108954
   0.33333333  0.08333333  0.47108954
   0.58333333  0.08333333  0.47108954
   0.83333333  0.08333333  0.47108954
   0.08333333  0.33333333  0.47108954
   0.33333333  0.33333333  0.47108954
   0.58333333  0.33333333  0.47108954
   0.83333333  0.33333333  0.47108954
   0.08333333  0.58333333  0.47108954
   0.33333333  0.58333333  0.47108954
   0.58333333  0.58333333  0.47108954
   0.83333333  0.58333333  0.47108954
   0.08333333  0.83333333  0.47108954
   0.33333333  0.83333333  0.47108954
   0.50574197  0.73851606  0.58279231
   0.75574197  0.73851606  0.58279231
Direct configuration=     5
   0.49358293  0.26283414  0.58908574
   0.99358293  0.26283414  0.58908574
   0.24358293  0.26283414  0.58908574
   0.74358293  0.26283414  0.58908574
   0.00629590  0.98740821  0.58639090
   0.25629590  0.98740821  0.58639090
   0.50629590  0.98740821  0.58639090
   0.75629590  0.98740821  0.58639090
   0.66711453  0.66577093  0.52605409
   0.41711453  0.66577093  0.52605409
   0.16711453  0.66577093  0.52605409
   0.91711453  0.66577093  0.52605409
   0.00000000  0.00000000  0.41326863
   0.66552731  0.41894539  0.52630877
   0.41552731  0.41894539  0.52630877
   0.16552731  0.41894539  0.52630877
   0.91552731  0.41894539  0.52630877
   0.66615339  0.16769322  0.52539593
   0.41615339  0.16769322  0.52539593
   0.91863684  0.91272631  0.52439308
   0.16863684  0.91272631  0.52439308
   0.66863684  0.91272631  0.52439308
   0.16615339  0.16769322  0.52539593
   0.99438831  0.51122338  0.58308988
   0.24438831  0.51122338  0.58308988
   0.49438831  0.51122338  0.58308988
   0.74438831  0.51122338  0.58308988
   0.00613680  0.73772641  0.58279096
   0.25613680  0.73772641  0.58279096
   0.41863684  0.91272631  0.52439308
   0.91615339  0.16769322  0.52539593
   0.83333333  0.83333333  0.47108954
   0.58333333  0.83333333  0.47108954
   0.25000000  0.00000000  0.41326863
   0.50000000  0.00000000  0.41326863
   0.75000000  0.00000000  0.41326863
   0.00000000  0.25000000  0.41326863
   0.25000000  0.25000000  0.41326863
   0.50000000  0.25000000  0.41326863
   0.75000000  0.25000000  0.41326863
   0.00000000  0.50000000  0.41326863
   0.25000000  0.50000000  0.41326863
   0.50000000  0.50000000  0.41326863
   0.75000000  0.50000000  0.41326863
   0.00000000  0.75000000  0.41326863
   0.25000000  0.75000000  0.41326863
   0.50000000  0.75000000  0.41326863
   0.75000000  0.75000000  0.41326863
   0.08333333  0.08333333  0.47108954
   0.33333333  0.08333333  0.47108954
   0.58333333  0.08333333  0.47108954
   0.83333333  0.08333333  0.47108954
   0.08333333  0.33333333  0.47108954
   0.33333333  0.33333333  0.47108954
   0.58333333  0.33333333  0.47108954
   0.83333333  0.33333333  0.47108954
   0.08333333  0.58333333  0.47108954
   0.33333333  0.58333333  0.47108954
   0.58333333  0.58333333  0.47108954
   0.83333333  0.58333333  0.47108954
   0.08333333  0.83333333  0.47108954
   0.33333333  0.83333333  0.47108954
   0.50613680  0.73772641  0.58279096
   0.75613680  0.73772641  0.58279096
Direct configuration=     6
   0.49362941  0.26274117  0.58916419
   0.99362941  0.26274117  0.58916419
   0.24362941  0.26274117  0.58916419
   0.74362941  0.26274117  0.58916419
   0.00595117  0.98809766  0.58673920
   0.25595117  0.98809766  0.58673920
   0.50595117  0.98809766  0.58673920
   0.75595117  0.98809766  0.58673920
   0.66729424  0.66541151  0.52597835
   0.41729424  0.66541151  0.52597835
   0.16729424  0.66541151  0.52597835
   0.91729424  0.66541151  0.52597835
   0.00000000  0.00000000  0.41326863
   0.66537396  0.41925209  0.52619421
   0.41537396  0.41925209  0.52619421
   0.16537396  0.41925209  0.52619421
   0.91537396  0.41925209  0.52619421
   0.66613519  0.16772962  0.52559404
   0.41613519  0.16772962  0.52559404
   0.91857318  0.91285365  0.52462460
   0.16857318  0.91285365  0.52462460
   0.66857318  0.91285365  0.52462460
   0.16613519  0.16772962  0.52559404
   0.99394445  0.51211110  0.58308737
   0.24394445  0.51211110  0.58308737
   0.49394445  0.51211110  0.58308737
   0.74394445  0.51211110  0.58308737
   0.00692645  0.73614710  0.58278827
   0.25692645  0.73614710  0.58278827
   0.41857318  0.91285365  0.52462460
   0.91613519  0.16772962  0.52559404
   0.83333333  0.83333333  0.47108954
   0.58333333  0.83333333  0.47108954
   0.25000000  0.00000000  0.41326863
   0.50000000  0.00000000  0.41326863
   0.75000000  0.00000000  0.41326863
   0.00000000  0.25000000  0.41326863
   0.25000000  0.25000000  0.41326863
   0.50000000  0.25000000  0.41326863
   0.75000000  0.25000000  0.41326863
   0.00000000  0.50000000  0.41326863
   0.25000000  0.50000000  0.41326863
   0.50000000  0.50000000  0.41326863
   0.75000000  0.50000000  0.41326863
   0.00000000  0.75000000  0.41326863
   0.25000000  0.75000000  0.41326863
   0.50000000  0.75000000  0.41326863
   0.75000000  0.75000000  0.41326863
   0.08333333  0.08333333  0.47108954
   0.33333333  0.08333333  0.47108954
   0.58333333  0.08333333  0.47108954
   0.83333333  0.08333333  0.47108954
   0.08333333  0.33333333  0.47108954
   0.33333333  0.33333333  0.47108954
   0.58333333  0.33333333  0.47108954
   0.83333333  0.33333333  0.47108954
   0.08333333  0.58333333  0.47108954
   0.33333333  0.58333333  0.47108954
   0.58333333  0.58333333  0.47108954
   0.83333333  0.58333333  0.47108954
   0.08333333  0.83333333  0.47108954
   0.33333333  0.83333333  0.47108954
   0.50692645  0.73614710  0.58278827
   0.75692645  0.73614710  0.58278827
Direct configuration=     7
   0.49359579  0.26280842  0.58910744
   0.99359579  0.26280842  0.58910744
   0.24359579  0.26280842  0.58910744
   0.74359579  0.26280842  0.58910744
   0.00620051  0.98759897  0.58648727
   0.25620051  0.98759897  0.58648727
   0.50620051  0.98759897  0.58648727
   0.75620051  0.98759897  0.58648727
   0.66716426  0.66567149  0.52603313
   0.41716426  0.66567149  0.52603313
   0.16716426  0.66567149  0.52603313
   0.91716426  0.66567149  0.52603313
   0.00000000  0.00000000  0.41326863
   0.66548488  0.41903025  0.52627708
   0.41548488  0.41903025  0.52627708
   0.16548488  0.41903025  0.52627708
   0.91548488  0.41903025  0.52627708
   0.66614836  0.16770329  0.52545075
   0.41614836  0.16770329  0.52545075
   0.91861923  0.91276154  0.52445714
   0.16861923  0.91276154  0.52445714
   0.66861923  0.91276154  0.52445714
   0.16614836  0.16770329  0.52545075
   0.99426550  0.51146900  0.58308919
   0.24426550  0.51146900  0.58308919
   0.49426550  0.51146900  0.58308919
   0.74426550  0.51146900  0.58308919
   0.00635528  0.73728943  0.58279021
   0.25635528  0.73728943  0.58279021
   0.41861923  0.91276154  0.52445714
   0.91614836  0.16770329  0.52545075
   0.83333333  0.83333333  0.47108954
   0.58333333  0.83333333  0.47108954
   0.25000000  0.00000000  0.41326863
   0.50000000  0.00000000  0.41326863
   0.75000000  0.00000000  0.41326863
   0.00000000  0.25000000  0.41326863
   0.25000000  0.25000000  0.41326863
   0.50000000  0.25000000  0.41326863
   0.75000000  0.25000000  0.41326863
   0.00000000  0.50000000  0.41326863
   0.25000000  0.50000000  0.41326863
   0.50000000  0.50000000  0.41326863
   0.75000000  0.50000000  0.41326863
   0.00000000  0.75000000  0.41326863
   0.25000000  0.75000000  0.41326863
   0.50000000  0.75000000  0.41326863
   0.75000000  0.75000000  0.41326863
   0.08333333  0.08333333  0.47108954
   0.33333333  0.08333333  0.47108954
   0.58333333  0.08333333  0.47108954
   0.83333333  0.08333333  0.47108954
   0.08333333  0.33333333  0.47108954
   0.33333333  0.33333333  0.47108954
   0.58333333  0.33333333  0.47108954
   0.83333333  0.33333333  0.47108954
   0.08333333  0.58333333  0.47108954
   0.33333333  0.58333333  0.47108954
   0.58333333  0.58333333  0.47108954
   0.83333333  0.58333333  0.47108954
   0.08333333  0.83333333  0.47108954
   0.33333333  0.83333333  0.47108954
   0.50635528  0.73728943  0.58279021
   0.75635528  0.73728943  0.58279021
Direct configuration=     8
   0.49329468  0.26341063  0.58924034
   0.99329468  0.26341063  0.58924034
   0.24329468  0.26341063  0.58924034
   0.74329468  0.26341063  0.58924034
   0.00651548  0.98696905  0.58713402
   0.25651548  0.98696905  0.58713402
   0.50651548  0.98696905  0.58713402
   0.75651548  0.98696905  0.58713402
   0.66731820  0.66536361  0.52583273
   0.41731820  0.66536361  0.52583273
   0.16731820  0.66536361  0.52583273
   0.91731820  0.66536361  0.52583273
   0.00000000  0.00000000  0.41326863
   0.66535714  0.41928571  0.52612122
   0.41535714  0.41928571  0.52612122
   0.16535714  0.41928571  0.52612122
   0.91535714  0.41928571  0.52612122
   0.66614621  0.16770757  0.52579424
   0.41614621  0.16770757  0.52579424
   0.91848458  0.91303084  0.52509331
   0.16848458  0.91303084  0.52509331
   0.66848458  0.91303084  0.52509331
   0.16614621  0.16770757  0.52579424
   0.99440519  0.51118962  0.58310362
   0.24440519  0.51118962  0.58310362
   0.49440519  0.51118962  0.58310362
   0.74440519  0.51118962  0.58310362
   0.00628730  0.73742540  0.58278761
   0.25628730  0.73742540  0.58278761
   0.41848458  0.91303084  0.52509331
   0.91614621  0.16770757  0.52579424
   0.83333333  0.83333333  0.47108954
   0.58333333  0.83333333  0.47108954
   0.25000000  0.00000000  0.41326863
   0.50000000  0.00000000  0.41326863
   0.75000000  0.00000000  0.41326863
   0.00000000  0.25000000  0.41326863
   0.25000000  0.25000000  0.41326863
   0.50000000  0.25000000  0.41326863
   0.75000000  0.25000000  0.41326863
   0.00000000  0.50000000  0.41326863
   0.25000000  0.50000000  0.41326863
   0.50000000  0.50000000  0.41326863
   0.75000000  0.50000000  0.41326863
   0.00000000  0.75000000  0.41326863
   0.25000000  0.75000000  0.41326863
   0.50000000  0.75000000  0.41326863
   0.75000000  0.75000000  0.41326863
   0.08333333  0.08333333  0.47108954
   0.33333333  0.08333333  0.47108954
   0.58333333  0.08333333  0.47108954
   0.83333333  0.08333333  0.47108954
   0.08333333  0.33333333  0.47108954
   0.33333333  0.33333333  0.47108954
   0.58333333  0.33333333  0.47108954
   0.83333333  0.33333333  0.47108954
   0.08333333  0.58333333  0.47108954
   0.33333333  0.58333333  0.47108954
   0.58333333  0.58333333  0.47108954
   0.83333333  0.58333333  0.47108954
   0.08333333  0.83333333  0.47108954
   0.33333333  0.83333333  0.47108954
   0.50628730  0.73742540  0.58278761
   0.75628730  0.73742540  0.58278761
Direct configuration=     9
   0.49316612  0.26366776  0.58929709
   0.99316612  0.26366776  0.58929709
   0.24316612  0.26366776  0.58929709
   0.74316612  0.26366776  0.58929709
   0.00664995  0.98670009  0.58741016
   0.25664995  0.98670009  0.58741016
   0.50664995  0.98670009  0.58741016
   0.75664995  0.98670009  0.58741016
   0.66738392  0.66523215  0.52574717
   0.41738392  0.66523215  0.52574717
   0.16738392  0.66523215  0.52574717
   0.91738392  0.66523215  0.52574717
   0.00000000  0.00000000  0.41326863
   0.66530261  0.41939479  0.52605467
   0.41530261  0.41939479  0.52605467
   0.16530261  0.41939479  0.52605467
   0.91530261  0.41939479  0.52605467
   0.66614530  0.16770940  0.52594090
   0.41614530  0.16770940  0.52594090
   0.91842709  0.91314582  0.52536493
   0.16842709  0.91314582  0.52536493
   0.66842709  0.91314582  0.52536493
   0.16614530  0.16770940  0.52594090
   0.99446484  0.51107033  0.58310978
   0.24446484  0.51107033  0.58310978
   0.49446484  0.51107033  0.58310978
   0.74446484  0.51107033  0.58310978
   0.00625827  0.73748345  0.58278649
   0.25625827  0.73748345  0.58278649
   0.41842709  0.91314582  0.52536493
   0.91614530  0.16770940  0.52594090
   0.83333333  0.83333333  0.47108954
   0.58333333  0.83333333  0.47108954
   0.25000000  0.00000000  0.41326863
   0.50000000  0.00000000  0.41326863
   0.75000000  0.00000000  0.41326863
   0.00000000  0.25000000  0.41326863
   0.25000000  0.25000000  0.41326863
   0.50000000  0.25000000  0.41326863
   0.75000000  0.25000000  0.41326863
   0.00000000  0.50000000  0.41326863
   0.25000000  0.50000000  0.41326863
   0.50000000  0.50000000  0.41326863
   0.75000000  0.50000000  0.41326863
   0.00000000  0.75000000  0.41326863
   0.25000000  0.75000000  0.41326863
   0.50000000  0.75000000  0.41326863
   0.75000000  0.75000000  0.41326863
   0.08333333  0.08333333  0.47108954
   0.33333333  0.08333333  0.47108954
   0.58333333  0.08333333  0.47108954
   0.83333333  0.08333333  0.47108954
   0.08333333  0.33333333  0.47108954
   0.33333333  0.33333333  0.47108954
   0.58333333  0.33333333  0.47108954
   0.83333333  0.33333333  0.47108954
   0.08333333  0.58333333  0.47108954
   0.33333333  0.58333333  0.47108954
   0.58333333  0.58333333  0.47108954
   0.83333333  0.58333333  0.47108954
   0.08333333  0.83333333  0.47108954
   0.33333333  0.83333333  0.47108954
   0.50625827  0.73748345  0.58278649
   0.75625827  0.73748345  0.58278649
Direct configuration=    10
   0.49290900  0.26418201  0.58941058
   0.99290900  0.26418201  0.58941058
   0.24290900  0.26418201  0.58941058
   0.74290900  0.26418201  0.58941058
   0.00691891  0.98616218  0.58796244
   0.25691891  0.98616218  0.58796244
   0.50691891  0.98616218  0.58796244
   0.75691891  0.98616218  0.58796244
   0.66751538  0.66496924  0.52557604
   0.41751538  0.66496924  0.52557604
   0.16751538  0.66496924  0.52557604
   0.91751538  0.66496924  0.52557604
   0.00000000  0.00000000  0.41326863
   0.66519353  0.41961294  0.52592157
   0.41519353  0.41961294  0.52592157
   0.16519353  0.41961294  0.52592157
   0.91519353  0.41961294  0.52592157
   0.66614347  0.16771306  0.52623423
   0.41614347  0.16771306  0.52623423
   0.91831211  0.91337579  0.52590819
   0.16831211  0.91337579  0.52590819
   0.66831211  0.91337579  0.52590819
   0.16614347  0.16771306  0.52623423
   0.99458412  0.51083175  0.58312210
   0.24458412  0.51083175  0.58312210
   0.49458412  0.51083175  0.58312210
   0.74458412  0.51083175  0.58312210
   0.00620022  0.73759956  0.58278427
   0.25620022  0.73759956  0.58278427
   0.41831211  0.91337579  0.52590819
   0.91614347  0.16771306  0.52623423
   0.83333333  0.83333333  0.47108954
   0.58333333  0.83333333  0.47108954
   0.25000000  0.00000000  0.41326863
   0.50000000  0.00000000  0.41326863
   0.75000000  0.00000000  0.41326863
   0.00000000  0.25000000  0.41326863
   0.25000000  0.25000000  0.41326863
   0.50000000  0.25000000  0.41326863
   0.75000000  0.25000000  0.41326863
   0.00000000  0.50000000  0.41326863
   0.25000000  0.50000000  0.41326863
   0.50000000  0.50000000  0.41326863
   0.75000000  0.50000000  0.41326863
   0.00000000  0.75000000  0.41326863
   0.25000000  0.75000000  0.41326863
   0.50000000  0.75000000  0.41326863
   0.75000000  0.75000000  0.41326863
   0.08333333  0.08333333  0.47108954
   0.33333333  0.08333333  0.47108954
   0.58333333  0.08333333  0.47108954
   0.83333333  0.08333333  0.47108954
   0.08333333  0.33333333  0.47108954
   0.33333333  0.33333333  0.47108954
   0.58333333  0.33333333  0.47108954
   0.83333333  0.33333333  0.47108954
   0.08333333  0.58333333  0.47108954
   0.33333333  0.58333333  0.47108954
   0.58333333  0.58333333  0.47108954
   0.83333333  0.58333333  0.47108954
   0.08333333  0.83333333  0.47108954
   0.33333333  0.83333333  0.47108954
   0.50620022  0.73759956  0.58278427
   0.75620022  0.73759956  0.58278427
Direct configuration=    11
   0.49316304  0.26367391  0.58953738
   0.99316304  0.26367391  0.58953738
   0.24316304  0.26367391  0.58953738
   0.74316304  0.26367391  0.58953738
   0.00693346  0.98613307  0.58863072
   0.25693346  0.98613307  0.58863072
   0.50693346  0.98613307  0.58863072
   0.75693346  0.98613307  0.58863072
   0.66730013  0.66539974  0.52562468
   0.41730013  0.66539974  0.52562468
   0.16730013  0.66539974  0.52562468
   0.91730013  0.66539974  0.52562468
   0.00000000  0.00000000  0.41326863
   0.66542287  0.41915425  0.52596777
   0.41542287  0.41915425  0.52596777
   0.16542287  0.41915425  0.52596777
   0.91542287  0.41915425  0.52596777
   0.66626206  0.16747588  0.52638842
   0.41626206  0.16747588  0.52638842
   0.91821628  0.91356745  0.52589391
   0.16821628  0.91356745  0.52589391
   0.66821628  0.91356745  0.52589391
   0.16626206  0.16747588  0.52638842
   0.99472911  0.51054178  0.58303989
   0.24472911  0.51054178  0.58303989
   0.49472911  0.51054178  0.58303989
   0.74472911  0.51054178  0.58303989
   0.00581118  0.73837764  0.58275503
   0.25581118  0.73837764  0.58275503
   0.41821628  0.91356745  0.52589391
   0.91626206  0.16747588  0.52638842
   0.83333333  0.83333333  0.47108954
   0.58333333  0.83333333  0.47108954
   0.25000000  0.00000000  0.41326863
   0.50000000  0.00000000  0.41326863
   0.75000000  0.00000000  0.41326863
   0.00000000  0.25000000  0.41326863
   0.25000000  0.25000000  0.41326863
   0.50000000  0.25000000  0.41326863
   0.75000000  0.25000000  0.41326863
   0.00000000  0.50000000  0.41326863
   0.25000000  0.50000000  0.41326863
   0.50000000  0.50000000  0.41326863
   0.75000000  0.50000000  0.41326863
   0.00000000  0.75000000  0.41326863
   0.25000000  0.75000000  0.41326863
   0.50000000  0.75000000  0.41326863
   0.75000000  0.75000000  0.41326863
   0.08333333  0.08333333  0.47108954
   0.33333333  0.08333333  0.47108954
   0.58333333  0.08333333  0.47108954
   0.83333333  0.08333333  0.47108954
   0.08333333  0.33333333  0.47108954
   0.33333333  0.33333333  0.47108954
   0.58333333  0.33333333  0.47108954
   0.83333333  0.33333333  0.47108954
   0.08333333  0.58333333  0.47108954
   0.33333333  0.58333333  0.47108954
   0.58333333  0.58333333  0.47108954
   0.83333333  0.58333333  0.47108954
   0.08333333  0.83333333  0.47108954
   0.33333333  0.83333333  0.47108954
   0.50581118  0.73837764  0.58275503
   0.75581118  0.73837764  0.58275503
Direct configuration=    12
   0.49325781  0.26348438  0.58958468
   0.99325781  0.26348438  0.58958468
   0.24325781  0.26348438  0.58958468
   0.74325781  0.26348438  0.58958468
   0.00693889  0.98612222  0.58888001
   0.25693889  0.98612222  0.58888001
   0.50693889  0.98612222  0.58888001
   0.75693889  0.98612222  0.58888001
   0.66721983  0.66556033  0.52564283
   0.41721983  0.66556033  0.52564283
   0.16721983  0.66556033  0.52564283
   0.91721983  0.66556033  0.52564283
   0.00000000  0.00000000  0.41326863
   0.66550843  0.41898315  0.52598500
   0.41550843  0.41898315  0.52598500
   0.16550843  0.41898315  0.52598500
   0.91550843  0.41898315  0.52598500
   0.66630630  0.16738740  0.52644593
   0.41630630  0.16738740  0.52644593
   0.91818053  0.91363894  0.52588858
   0.16818053  0.91363894  0.52588858
   0.66818053  0.91363894  0.52588858
   0.16630630  0.16738740  0.52644593
   0.99478320  0.51043361  0.58300923
   0.24478320  0.51043361  0.58300923
   0.49478320  0.51043361  0.58300923
   0.74478320  0.51043361  0.58300923
   0.00566606  0.73866788  0.58274412
   0.25566606  0.73866788  0.58274412
   0.41818053  0.91363894  0.52588858
   0.91630630  0.16738740  0.52644593
   0.83333333  0.83333333  0.47108954
   0.58333333  0.83333333  0.47108954
   0.25000000  0.00000000  0.41326863
   0.50000000  0.00000000  0.41326863
   0.75000000  0.00000000  0.41326863
   0.00000000  0.25000000  0.41326863
   0.25000000  0.25000000  0.41326863
   0.50000000  0.25000000  0.41326863
   0.75000000  0.25000000  0.41326863
   0.00000000  0.50000000  0.41326863
   0.25000000  0.50000000  0.41326863
   0.50000000  0.50000000  0.41326863
   0.75000000  0.50000000  0.41326863
   0.00000000  0.75000000  0.41326863
   0.25000000  0.75000000  0.41326863
   0.50000000  0.75000000  0.41326863
   0.75000000  0.75000000  0.41326863
   0.08333333  0.08333333  0.47108954
   0.33333333  0.08333333  0.47108954
   0.58333333  0.08333333  0.47108954
   0.83333333  0.08333333  0.47108954
   0.08333333  0.33333333  0.47108954
   0.33333333  0.33333333  0.47108954
   0.58333333  0.33333333  0.47108954
   0.83333333  0.33333333  0.47108954
   0.08333333  0.58333333  0.47108954
   0.33333333  0.58333333  0.47108954
   0.58333333  0.58333333  0.47108954
   0.83333333  0.58333333  0.47108954
   0.08333333  0.83333333  0.47108954
   0.33333333  0.83333333  0.47108954
   0.50566606  0.73866788  0.58274412
   0.75566606  0.73866788  0.58274412
Direct configuration=    13
   0.49344735  0.26310531  0.58967928
   0.99344735  0.26310531  0.58967928
   0.24344735  0.26310531  0.58967928
   0.74344735  0.26310531  0.58967928
   0.00694975  0.98610051  0.58937859
   0.25694975  0.98610051  0.58937859