       N       E                     dE             d eps       ncg     rms          rms(c)
DAV:   1     0.360625862023E+04    0.36063E+04   -0.15297E+05  1458   0.163E+03
DAV:   2     0.303900144522E+03   -0.33024E+04   -0.31872E+04  1458   0.399E+02
DAV:   3    -0.959610084794E+02   -0.39986E+03   -0.37232E+03  1670   0.190E+02
DAV:   4    -0.145921899303E+03   -0.49961E+02   -0.46894E+02  2140   0.653E+01
DAV:   5    -0.149540686055E+03   -0.36188E+01   -0.33943E+01  2172   0.175E+01    0.427E+01
DAV:   6    -0.137418796957E+03    0.12122E+02   -0.32868E+02  1644   0.126E+02    0.246E+01
DAV:   7    -0.122680123000E+03    0.14739E+02   -0.67295E+01  1670   0.855E+01    0.726E+00
DAV:   8    -0.122710846791E+03   -0.30724E-01   -0.14980E+01  1940   0.442E+01    0.344E+00
DAV:   9    -0.122996585876E+03   -0.28574E+00   -0.55572E+00  1892   0.196E+01    0.413E+00
DAV:  10    -0.122867805498E+03    0.12878E+00   -0.13103E+00  1692   0.177E+01    0.294E+00
DAV:  11    -0.122741411764E+03    0.12639E+00   -0.41595E-01  1884   0.107E+01    0.117E+00
DAV:  12    -0.122739582024E+03    0.18297E-02   -0.33772E-01  1908   0.583E+00    0.706E-01
DAV:  13    -0.122742449736E+03   -0.28677E-02   -0.14376E-01  1660   0.461E+00    0.623E-01
DAV:  14    -0.122730680003E+03    0.11770E-01   -0.22803E-02  1692   0.102E+00    0.224E-01
DAV:  15    -0.122727688386E+03    0.29916E-02   -0.10529E-02  1724   0.118E+00    0.128E-01
DAV:  16    -0.122727326522E+03    0.36186E-03   -0.38260E-03  1876   0.662E-01    0.145E-01
DAV:  17    -0.122726472398E+03    0.85412E-03   -0.15403E-03  1601   0.594E-01    0.659E-02
DAV:  18    -0.122726633905E+03   -0.16151E-03   -0.12213E-03  1603   0.332E-01    0.397E-02
DAV:  19    -0.122727144149E+03   -0.51024E-03   -0.57559E-04  1593   0.258E-01    0.509E-02
DAV:  20    -0.122727703006E+03   -0.55886E-03   -0.18771E-04  1804   0.123E-01    0.238E-02
DAV:  21    -0.122728158380E+03   -0.45537E-03   -0.12093E-04  1865   0.980E-02    0.131E-02
DAV:  22    -0.122728470233E+03   -0.31185E-03   -0.67383E-05  1726   0.788E-02    0.148E-02
DAV:  23    -0.122728649224E+03   -0.17899E-03   -0.16969E-05  1849   0.335E-02    0.792E-03
DAV:  24    -0.122728770589E+03   -0.12137E-03   -0.88862E-06  1612   0.306E-02    0.350E-03
DAV:  25    -0.122728881884E+03   -0.11130E-03   -0.69859E-06  1529   0.220E-02    0.239E-03
DAV:  26    -0.122728965378E+03   -0.83494E-04   -0.28341E-06  1057   0.129E-02    0.236E-03
DAV:  27    -0.122728992599E+03   -0.27220E-04   -0.10364E-06   940   0.104E-02    0.227E-03
DAV:  28    -0.122729018098E+03   -0.25500E-04   -0.88387E-07   942   0.768E-03    0.124E-03
DAV:  29    -0.122729042211E+03   -0.24113E-04   -0.83951E-07   941   0.538E-03    0.830E-04
DAV:  30    -0.122729046605E+03   -0.43940E-05   -0.26441E-07   961   0.420E-03    0.470E-04
DAV:  31    -0.122729051110E+03   -0.45049E-05   -0.14203E-07   886   0.241E-03    0.358E-04
DAV:  32    -0.122729055132E+03   -0.40213E-05   -0.10380E-07   888   0.208E-03    0.249E-04
DAV:  33    -0.122729055945E+03   -0.81316E-06   -0.38073E-08   910   0.128E-03
   1 F= -.12272906E+03 E0= -.12270229E+03  d E =-.122729E+03
       N       E                     dE             d eps       ncg     rms          rms(c)
DAV:   1    -0.121573752478E+03    0.11553E+01   -0.13905E+02  1458   0.177E+01    0.346E+00
DAV:   2    -0.121974186983E+03   -0.40043E+00   -0.59034E+00  2230   0.101E+01    0.319E+00
DAV:   3    -0.121872623574E+03    0.10156E+00   -0.77344E-01  2014   0.139E+01    0.175E+00
DAV:   4    -0.121854344714E+03    0.18279E-01   -0.37082E-01  1740   0.151E+01    0.140E+00
DAV:   5    -0.121805202970E+03    0.49142E-01   -0.13329E-01  2209   0.111E+01    0.360E-01
DAV:   6    -0.121807960664E+03   -0.27577E-02   -0.62256E-02  2318   0.314E+00    0.237E-01
DAV:   7    -0.121810671434E+03   -0.27108E-02   -0.24156E-02  1646   0.175E+00    0.181E-01
DAV:   8    -0.121812156220E+03   -0.14848E-02   -0.75139E-03  1574   0.916E-01    0.974E-02
DAV:   9    -0.121813979284E+03   -0.18231E-02   -0.23944E-03  1731   0.532E-01    0.587E-02
DAV:  10    -0.121814541578E+03   -0.56229E-03   -0.57287E-04  1956   0.288E-01    0.395E-02
DAV:  11    -0.121814947147E+03   -0.40557E-03   -0.27125E-04  1657   0.252E-01    0.230E-02
DAV:  12    -0.121815244052E+03   -0.29690E-03   -0.93908E-05  2030   0.774E-02    0.152E-02
DAV:  13    -0.121815806387E+03   -0.56234E-03   -0.18626E-04  1928   0.102E-01    0.149E-02
DAV:  14    -0.121816015674E+03   -0.20929E-03   -0.67150E-05  1956   0.904E-02    0.989E-03
DAV:  15    -0.121816159193E+03   -0.14352E-03   -0.32887E-05  2043   0.611E-02    0.785E-03
DAV:  16    -0.121816284258E+03   -0.12507E-03   -0.27897E-05  1988   0.389E-02    0.684E-03
DAV:  17    -0.121816322394E+03   -0.38136E-04   -0.11058E-05  1798   0.369E-02    0.291E-03
DAV:  18    -0.121816353185E+03   -0.30791E-04   -0.25559E-06  1052   0.122E-02    0.256E-03
DAV:  19    -0.121816371006E+03   -0.17821E-04   -0.13899E-06   918   0.142E-02    0.155E-03
DAV:  20    -0.121816386382E+03   -0.15377E-04   -0.14763E-06   995   0.105E-02    0.190E-03
DAV:  21    -0.121816395338E+03   -0.89553E-05   -0.13292E-06   942   0.986E-03    0.983E-04
DAV:  22    -0.121816398421E+03   -0.30838E-05   -0.40436E-07   886   0.432E-03    0.586E-04
DAV:  23    -0.121816400389E+03   -0.19671E-05   -0.20550E-07   862   0.346E-03    0.435E-04
DAV:  24    -0.121816402115E+03   -0.17267E-05   -0.14855E-07   853   0.292E-03    0.404E-04
DAV:  25    -0.121816403608E+03   -0.14931E-05   -0.98694E-08   851   0.244E-03    0.295E-04
DAV:  26    -0.121816404056E+03   -0.44756E-06   -0.43290E-08   854   0.134E-03
   2 F= -.12181640E+03 E0= -.12178456E+03  d E =0.912652E+00
       N       E                     dE             d eps       ncg     rms          rms(c)
DAV:   1    -0.122171855211E+03   -0.35545E+00   -0.94143E+01  1458   0.177E+01    0.339E+00
DAV:   2    -0.122937715885E+03   -0.76586E+00   -0.85324E+00  2177   0.726E+00    0.285E+00
DAV:   3    -0.122837131471E+03    0.10058E+00   -0.48769E-01  2038   0.887E+00    0.160E+00
DAV:   4    -0.122825302046E+03    0.11829E-01   -0.17907E-01  1737   0.123E+01    0.132E+00
DAV:   5    -0.122772801050E+03    0.52501E-01   -0.91584E-02  1753   0.927E+00    0.511E-01
DAV:   6    -0.122769341754E+03    0.34593E-02   -0.55151E-02  2292   0.293E+00    0.234E-01
DAV:   7    -0.122769466166E+03   -0.12441E-03   -0.14799E-02  1700   0.172E+00    0.163E-01
DAV:   8    -0.122769428024E+03    0.38142E-04   -0.42104E-03  1670   0.723E-01    0.825E-02
DAV:   9    -0.122769885355E+03   -0.45733E-03   -0.20136E-03  1782   0.417E-01    0.609E-02
DAV:  10    -0.122770023381E+03   -0.13803E-03   -0.50790E-04  1633   0.351E-01    0.303E-02
DAV:  11    -0.122770294949E+03   -0.27157E-03   -0.17388E-04  1766   0.106E-01    0.213E-02
DAV:  12    -0.122770845241E+03   -0.55029E-03   -0.24967E-04  1582   0.127E-01    0.226E-02
DAV:  13    -0.122770993526E+03   -0.14828E-03   -0.40513E-05  1673   0.959E-02    0.140E-02
DAV:  14    -0.122771194481E+03   -0.20096E-03   -0.25242E-05  2126   0.693E-02    0.702E-03
DAV:  15    -0.122771492504E+03   -0.29802E-03   -0.23312E-05  2030   0.404E-02    0.569E-03
DAV:  16    -0.122771649746E+03   -0.15724E-03   -0.12371E-05  1720   0.392E-02    0.459E-03
DAV:  17    -0.122771728359E+03   -0.78613E-04   -0.42024E-06  1184   0.220E-02    0.258E-03
DAV:  18    -0.122771812640E+03   -0.84281E-04   -0.35166E-06  1256   0.151E-02    0.186E-03
DAV:  19    -0.122771837257E+03   -0.24618E-04   -0.11974E-06   990   0.103E-02    0.142E-03
DAV:  20    -0.122771859311E+03   -0.22053E-04   -0.92362E-07   926   0.826E-03    0.102E-03
DAV:  21    -0.122771876699E+03   -0.17388E-04   -0.74471E-07   918   0.630E-03    0.814E-04
DAV:  22    -0.122771881835E+03   -0.51358E-05   -0.29616E-07   948   0.400E-03    0.565E-04
DAV:  23    -0.122771886266E+03   -0.44312E-05   -0.18736E-07   880   0.308E-03    0.340E-04
DAV:  24    -0.122771889404E+03   -0.31372E-05   -0.11807E-07   870   0.175E-03    0.329E-04
DAV:  25    -0.122771890952E+03   -0.15488E-05   -0.50358E-08   881   0.167E-03    0.251E-04
DAV:  26    -0.122771892322E+03   -0.13692E-05   -0.36674E-08   854   0.125E-03    0.189E-04
DAV:  27    -0.122771892680E+03   -0.35897E-06   -0.17099E-08   857   0.111E-03
   3 F= -.12277189E+03 E0= -.12274436E+03  d E =-.428367E-01
       N       E                     dE             d eps       ncg     rms          rms(c)
DAV:   1    -0.122772232882E+03   -0.34056E-03   -0.22223E-02  1467   0.230E-01    0.524E-02
DAV:   2    -0.122772336299E+03   -0.10342E-03   -0.13192E-03  2121   0.109E-01    0.387E-02
DAV:   3    -0.122772320067E+03    0.16232E-04   -0.74406E-05  1670   0.148E-01    0.242E-02
DAV:   4    -0.122772316110E+03    0.39566E-05   -0.66940E-05  1652   0.213E-01    0.190E-02
DAV:   5    -0.122772304689E+03    0.11422E-04   -0.26003E-05  1755   0.173E-01    0.628E-03
DAV:   6    -0.122772304393E+03    0.29552E-06   -0.69096E-06  1756   0.552E-02
   4 F= -.12277230E+03 E0= -.12274484E+03  d E =-.432484E-01
       N       E                     dE             d eps       ncg     rms          rms(c)
DAV:   1    -0.122808171878E+03   -0.35867E-01   -0.19327E+01  1504   0.963E+00    0.481E-01
DAV:   2    -0.122849145748E+03   -0.40974E-01   -0.43782E-01  2158   0.289E+00    0.533E-01
DAV:   3    -0.122845996991E+03    0.31488E-02   -0.21270E-02  1574   0.204E+00    0.291E-01
DAV:   4    -0.122845502725E+03    0.49427E-03   -0.42923E-03  1865   0.809E-01    0.220E-01
DAV:   5    -0.122845125618E+03    0.37711E-03   -0.23475E-03  2107   0.547E-01    0.868E-02
DAV:   6    -0.122845144905E+03   -0.19287E-04   -0.99544E-04  2460   0.452E-01    0.417E-02
DAV:   7    -0.122845127583E+03    0.17322E-04   -0.21259E-04  1678   0.341E-01    0.168E-02
DAV:   8    -0.122845128522E+03   -0.93883E-06   -0.67724E-05  1673   0.149E-01    0.178E-02
DAV:   9    -0.122845127826E+03    0.69581E-06   -0.39677E-05  1593   0.860E-02    0.103E-02
DAV:  10    -0.122845127697E+03    0.12899E-06   -0.10105E-05  1913   0.289E-02    0.415E-03
DAV:  11    -0.122845128296E+03   -0.59925E-06   -0.49810E-06  1385   0.295E-02
   5 F= -.12284513E+03 E0= -.12281693E+03  d E =-.728239E-01
       N       E                     dE             d eps       ncg     rms          rms(c)
DAV:   1    -0.122610706722E+03    0.23442E+00   -0.17841E+02  1507   0.306E+01    0.151E+00
DAV:   2    -0.123027251948E+03   -0.41655E+00   -0.44223E+00  2188   0.101E+01    0.168E+00
DAV:   3    -0.122994705388E+03    0.32547E-01   -0.22146E-01  1625   0.718E+00    0.859E-01
DAV:   4    -0.122991178011E+03    0.35274E-02   -0.43544E-02  1828   0.216E+00    0.661E-01
DAV:   5    -0.122986014645E+03    0.51634E-02   -0.21261E-02  1862   0.174E+00    0.304E-01
DAV:   6    -0.122985602932E+03    0.41171E-03   -0.12188E-02  2337   0.122E+00    0.105E-01
DAV:   7    -0.122985606736E+03   -0.38043E-05   -0.21346E-03  1708   0.736E-01    0.653E-02
DAV:   8    -0.122985613214E+03   -0.64774E-05   -0.69143E-04  1676   0.312E-01    0.511E-02
DAV:   9    -0.122985609504E+03    0.37099E-05   -0.23243E-04  1705   0.275E-01    0.258E-02
DAV:  10    -0.122985609388E+03    0.11531E-06   -0.98601E-05  2049   0.177E-01    0.874E-03
DAV:  11    -0.122985619969E+03   -0.10581E-04   -0.36234E-05  2185   0.599E-02    0.644E-03
DAV:  12    -0.122985622345E+03   -0.23759E-05   -0.89567E-06  1540   0.411E-02    0.364E-03
DAV:  13    -0.122985625763E+03   -0.34180E-05   -0.23541E-06   942   0.176E-02    0.162E-03
DAV:  14    -0.122985628776E+03   -0.30128E-05   -0.95910E-07   873   0.102E-02    0.138E-03
DAV:  15    -0.122985631418E+03   -0.26416E-05   -0.68792E-07   897   0.884E-03    0.106E-03
DAV:  16    -0.122985632983E+03   -0.15659E-05   -0.33507E-07   884   0.521E-03    0.464E-04
DAV:  17    -0.122985634708E+03   -0.17249E-05   -0.22680E-07   870   0.303E-03    0.536E-04
DAV:  18    -0.122985635792E+03   -0.10832E-05   -0.16442E-07   876   0.278E-03    0.417E-04
DAV:  19    -0.122985636707E+03   -0.91508E-06   -0.92666E-08   862   0.185E-03
   6 F= -.12298564E+03 E0= -.12295477E+03  d E =-.213332E+00
       N       E                     dE             d eps       ncg     rms          rms(c)
DAV:   1    -0.121571334445E+03    0.14143E+01   -0.78666E+02  1827   0.720E+01    0.326E+00
DAV:   2    -0.123056644841E+03   -0.14853E+01   -0.16265E+01  2156   0.276E+01    0.395E+00
DAV:   3    -0.122891312640E+03    0.16533E+00   -0.14964E+00  1617   0.192E+01    0.161E+00
DAV:   4    -0.122883643030E+03    0.76696E-02   -0.26869E-01  1708   0.385E+00    0.119E+00
DAV:   5    -0.122873144326E+03    0.10499E-01   -0.13120E-01  1657   0.569E+00    0.728E-01
DAV:   6    -0.122869060890E+03    0.40834E-02   -0.74450E-02  1875   0.628E+00    0.365E-01
DAV:   7    -0.122868016385E+03    0.10445E-02   -0.30491E-02  2475   0.397E+00    0.230E-01
DAV:   8    -0.122867650922E+03    0.36546E-03   -0.92593E-03  2211   0.178E+00    0.143E-01
DAV:   9    -0.122867730150E+03   -0.79228E-04   -0.40425E-03  1601   0.567E-01    0.123E-01
DAV:  10    -0.122867608163E+03    0.12199E-03   -0.10323E-03  1612   0.286E-01    0.682E-02
DAV:  11    -0.122867606733E+03    0.14299E-05   -0.73465E-04  2321   0.330E-01    0.375E-02
DAV:  12    -0.122867604726E+03    0.20069E-05   -0.15290E-04  1948   0.175E-01    0.284E-02
DAV:  13    -0.122867592812E+03    0.11915E-04   -0.75864E-05  1678   0.124E-01    0.717E-03
DAV:  14    -0.122867596987E+03   -0.41756E-05   -0.19051E-05  2073   0.322E-02    0.579E-03
DAV:  15    -0.122867599242E+03   -0.22547E-05   -0.44690E-06  1476   0.257E-02    0.289E-03
DAV:  16    -0.122867601637E+03   -0.23951E-05   -0.21595E-06   993   0.181E-02    0.266E-03
DAV:  17    -0.122867603141E+03   -0.15035E-05   -0.77097E-07   889   0.831E-03    0.850E-04
DAV:  18    -0.122867603767E+03   -0.62649E-06   -0.25534E-07   876   0.408E-03
   7 F= -.12286760E+03 E0= -.12283234E+03  d E =-.952994E-01
       N       E                     dE             d eps       ncg     rms          rms(c)
DAV:   1    -0.122123610937E+03    0.74399E+00   -0.38918E+02  1539   0.463E+01    0.221E+00
DAV:   2    -0.123105654232E+03   -0.98204E+00   -0.10314E+01  2228   0.189E+01    0.246E+00
DAV:   3    -0.123029512173E+03    0.76142E-01   -0.54197E-01  1745   0.146E+01    0.130E+00
DAV:   4    -0.123022532936E+03    0.69792E-02   -0.11912E-01  1827   0.650E+00    0.109E+00
DAV:   5    -0.123014251156E+03    0.82818E-02   -0.85827E-02  1635   0.488E+00    0.708E-01
DAV:   6    -0.123009950594E+03    0.43006E-02   -0.59840E-02  1801   0.409E+00    0.261E-01
DAV:   7    -0.123011255928E+03   -0.13053E-02   -0.24806E-02  2113   0.183E+00    0.128E-01
DAV:   8    -0.123011377955E+03   -0.12203E-03   -0.49642E-03  1604   0.757E-01    0.890E-02
DAV:   9    -0.123011362043E+03    0.15912E-04   -0.11920E-03  1638   0.330E-01    0.626E-02
DAV:  10    -0.123011327992E+03    0.34050E-04   -0.50150E-04  2017   0.207E-01    0.262E-02
DAV:  11    -0.123011334777E+03   -0.67850E-05   -0.99407E-05  1620   0.910E-02    0.129E-02
DAV:  12    -0.123011335872E+03   -0.10951E-05   -0.44026E-05  1628   0.955E-02    0.827E-03
DAV:  13    -0.123011337309E+03   -0.14366E-05   -0.10207E-05  1878   0.412E-02    0.608E-03
DAV:  14    -0.123011339497E+03   -0.21885E-05   -0.70598E-06  1510   0.309E-02    0.234E-03
DAV:  15    -0.123011340460E+03   -0.96252E-06   -0.83502E-07   884   0.121E-02
   8 F= -.12301134E+03 E0= -.12297896E+03  d E =-.239036E+00
       N       E                     dE             d eps       ncg     rms          rms(c)
DAV:   1    -0.122945406326E+03    0.65933E-01   -0.21985E+01  1485   0.102E+01    0.798E-01
DAV:   2    -0.123002088014E+03   -0.56682E-01   -0.60806E-01  2113   0.283E+00    0.564E-01
DAV:   3    -0.122999087211E+03    0.30008E-02   -0.29305E-02  1665   0.284E+00    0.383E-01
DAV:   4    -0.122997033194E+03    0.20540E-02   -0.10193E-02  1700   0.237E+00    0.238E-01
DAV:   5    -0.122996599945E+03    0.43325E-03   -0.66964E-03  2097   0.239E+00    0.190E-01
DAV:   6    -0.122995687582E+03    0.91236E-03   -0.36735E-03  2452   0.150E+00    0.512E-02
DAV:   7    -0.122995793144E+03   -0.10556E-03   -0.12317E-03  1988   0.200E-01    0.347E-02
DAV:   8    -0.122995824100E+03   -0.30956E-04   -0.26459E-04  1625   0.212E-01    0.275E-02
DAV:   9    -0.122995842984E+03   -0.18884E-04   -0.62017E-05  1721   0.133E-01    0.134E-02
DAV:  10    -0.122995893100E+03   -0.50115E-04   -0.38564E-05  2193   0.594E-02    0.681E-03
DAV:  11    -0.122995920155E+03   -0.27056E-04   -0.13114E-05  1532   0.282E-02    0.507E-03
DAV:  12    -0.122995950823E+03   -0.30668E-04   -0.67055E-06  1513   0.344E-02    0.457E-03
DAV:  13    -0.122995971559E+03   -0.20736E-04   -0.16670E-06   929   0.221E-02    0.282E-03
DAV:  14    -0.122996002124E+03   -0.30565E-04   -0.24629E-06  1073   0.185E-02    0.174E-03
DAV:  15    -0.122996020811E+03   -0.18687E-04   -0.18633E-06  1041   0.108E-02    0.174E-03
DAV:  16    -0.122996040199E+03   -0.19388E-04   -0.15160E-06   955   0.969E-03    0.101E-03
DAV:  17    -0.122996055509E+03   -0.15311E-04   -0.13188E-06   945   0.777E-03    0.108E-03
DAV:  18    -0.122996059934E+03   -0.44242E-05   -0.63790E-07   956   0.592E-03    0.623E-04
DAV:  19    -0.122996062993E+03   -0.30599E-05   -0.30485E-07   865   0.335E-03    0.571E-04
DAV:  20    -0.122996066108E+03   -0.31145E-05   -0.20318E-07   897   0.310E-03    0.373E-04
DAV:  21    -0.122996068015E+03   -0.19071E-05   -0.93628E-08   889   0.241E-03    0.310E-04
DAV:  22    -0.122996069100E+03   -0.10848E-05   -0.55002E-08   860   0.137E-03    0.214E-04
DAV:  23    -0.122996069781E+03   -0.68150E-06   -0.30270E-08   873   0.138E-03
   9 F= -.12299607E+03 E0= -.12296394E+03  d E =0.152707E-01
       N       E                     dE             d eps       ncg     rms          rms(c)
DAV:   1    -0.123004025154E+03   -0.79561E-02   -0.83100E+00  1480   0.623E+00    0.493E-01
DAV:   2    -0.123022148150E+03   -0.18123E-01   -0.20406E-01  2116   0.194E+00    0.356E-01
DAV:   3    -0.123021012706E+03    0.11354E-02   -0.12360E-02  1684   0.176E+00    0.230E-01
DAV:   4    -0.123020209414E+03    0.80329E-03   -0.40287E-03  1684   0.140E+00    0.139E-01
DAV:   5    -0.123020108301E+03    0.10111E-03   -0.25725E-03  2524   0.114E+00    0.848E-02
DAV:   6    -0.123019876533E+03    0.23177E-03   -0.90372E-04  2022   0.867E-01    0.370E-02
DAV:   7    -0.123019913036E+03   -0.36503E-04   -0.36017E-04  2073   0.286E-01    0.238E-02
DAV:   8    -0.123019955277E+03   -0.42241E-04   -0.18045E-04  1553   0.130E-01    0.159E-02
DAV:   9    -0.123019983411E+03   -0.28134E-04   -0.37127E-05  1673   0.827E-02    0.882E-03
DAV:  10    -0.123020021058E+03   -0.37647E-04   -0.13514E-05  1753   0.518E-02    0.459E-03
DAV:  11    -0.123020042381E+03   -0.21323E-04   -0.43193E-06  1252   0.216E-02    0.288E-03
DAV:  12    -0.123020066060E+03   -0.23680E-04   -0.27455E-06  1009   0.210E-02    0.230E-03
DAV:  13    -0.123020075537E+03   -0.94766E-05   -0.12644E-06  1012   0.120E-02    0.149E-03
DAV:  14    -0.123020101875E+03   -0.26338E-04   -0.52952E-06  1419   0.142E-02    0.226E-03
DAV:  15    -0.123020106876E+03   -0.50010E-05   -0.54370E-07   956   0.674E-03    0.116E-03
DAV:  16    -0.123020113352E+03   -0.64766E-05   -0.52872E-07   918   0.647E-03    0.786E-04
DAV:  17    -0.123020119745E+03   -0.63930E-05   -0.77573E-07   918   0.411E-03    0.775E-04
DAV:  18    -0.123020121122E+03   -0.13768E-05   -0.27837E-07   940   0.362E-03    0.391E-04
DAV:  19    -0.123020122036E+03   -0.91345E-06   -0.10862E-07   865   0.199E-03
  10 F= -.12302012E+03 E0= -.12298784E+03  d E =-.878158E-02
       N       E                     dE             d eps       ncg     rms          rms(c)
DAV:   1    -0.123026995652E+03   -0.68745E-02   -0.13424E+00  1512   0.251E+00    0.780E-02
DAV:   2    -0.123029346388E+03   -0.23507E-02   -0.24193E-02  2163   0.630E-01    0.917E-02
DAV:   3    -0.123029288785E+03    0.57603E-04   -0.71803E-04  1547   0.321E-01    0.678E-02
DAV:   4    -0.123029262147E+03    0.26637E-04   -0.14504E-04  1654   0.213E-01    0.571E-02
DAV:   5    -0.123029216192E+03    0.45955E-04   -0.10554E-04  2619   0.186E-01    0.345E-02
DAV:   6    -0.123029200826E+03    0.15367E-04   -0.87189E-05  2059   0.279E-01    0.194E-02
DAV:   7    -0.123029190886E+03    0.99391E-05   -0.55435E-05  2331   0.142E-01    0.860E-03
DAV:   8    -0.123029191986E+03   -0.10995E-05   -0.23699E-05  1988   0.353E-02    0.600E-03
DAV:   9    -0.123029192042E+03   -0.56461E-07   -0.36309E-06  1190   0.141E-02
  11 F= -.12302919E+03 E0= -.12299681E+03  d E =-.907001E-02
       N       E                     dE             d eps       ncg     rms          rms(c)
DAV:   1    -0.123028547862E+03    0.64412E-03   -0.12106E+01  1520   0.757E+00    0.251E-01
DAV:   2    -0.123051656101E+03   -0.23108E-01   -0.23890E-01  2152   0.197E+00    0.313E-01
DAV:   3    -0.123050679860E+03    0.97624E-03   -0.65576E-03  1539   0.101E+00    0.210E-01
DAV:   4    -0.123050447119E+03    0.23274E-03   -0.15366E-03  1721   0.561E-01    0.177E-01
DAV:   5    -0.123050048627E+03    0.39849E-03   -0.82776E-04  2272   0.533E-01    0.114E-01
DAV:   6    -0.123049933380E+03    0.11525E-03   -0.10582E-03  2064   0.888E-01    0.601E-02
DAV:   7    -0.123049819981E+03    0.11340E-03   -0.67298E-04  2440   0.508E-01    0.182E-02
DAV:   8    -0.123049845349E+03   -0.25367E-04   -0.28711E-04  1817   0.952E-02    0.218E-02
DAV:   9    -0.123049842588E+03    0.27608E-05   -0.22384E-05  1588   0.470E-02    0.159E-02
DAV:  10    -0.123049840884E+03    0.17034E-05   -0.53591E-06  1393   0.228E-02    0.119E-02
DAV:  11    -0.123049840714E+03    0.17037E-06   -0.20913E-05  2129   0.313E-02    0.554E-03
DAV:  12    -0.123049840100E+03    0.61351E-06   -0.26015E-06  1020   0.199E-02
  12 F= -.12304984E+03 E0= -.12301717E+03  d E =-.297181E-01
       N       E                     dE             d eps       ncg     rms          rms(c)
DAV:   1    -0.122972458354E+03    0.77382E-01   -0.48903E+01  1544   0.154E+01    0.517E-01
DAV:   2    -0.123072116141E+03   -0.99658E-01   -0.10299E+00  2163   0.407E+00    0.643E-01
DAV:   3    -0.123067639496E+03    0.44766E-02   -0.27233E-02  1545   0.214E+00    0.421E-01
DAV:   4    -0.123066739506E+03    0.89999E-03   -0.65267E-03  1708   0.102E+00    0.359E-01
DAV:   5    -0.123065073063E+03    0.16664E-02   -0.34372E-03  2147   0.103E+00    0.235E-01
DAV:   6    -0.123064604462E+03    0.46860E-03   -0.55445E-03  2531   0.169E+00    0.112E-01
DAV:   7    -0.123064156996E+03    0.44747E-03   -0.20259E-03  2558   0.975E-01    0.377E-02
DAV:   8    -0.123064228663E+03   -0.71667E-04   -0.83035E-04  1705   0.182E-01    0.411E-02
DAV:   9    -0.123064218789E+03    0.98739E-05   -0.10541E-04  1596   0.118E-01    0.273E-02
DAV:  10    -0.123064213481E+03    0.53080E-05   -0.18712E-05  2161   0.462E-02    0.184E-02
DAV:  11    -0.123064216218E+03   -0.27369E-05   -0.49118E-05  2201   0.580E-02    0.935E-03
DAV:  12    -0.123064215663E+03    0.55478E-06   -0.10387E-05  1596   0.408E-02    0.440E-03
DAV:  13    -0.123064215736E+03   -0.72992E-07   -0.24456E-06  1012   0.183E-02
  13 F= -.12306422E+03 E0= -.12303105E+03  d E =-.440937E-01
       N       E                     dE             d eps       ncg     rms          rms(c)
DAV:   1    -0.123063946060E+03    0.26960E-03   -0.22473E-01  1512   0.102E+00    0.317E-02
DAV:   2    -0.123064324048E+03   -0.37799E-03   -0.38675E-03  2163   0.273E-01    0.373E-02
DAV:   3    -0.123064321876E+03    0.21719E-05   -0.17068E-04  1563   0.164E-01    0.275E-02
DAV:   4    -0.123064317622E+03    0.42540E-05   -0.27273E-05  1644   0.841E-02    0.229E-02
DAV:   5    -0.123064315276E+03    0.23461E-05   -0.22644E-05  2494   0.835E-02    0.153E-02
DAV:   6    -0.123064313947E+03    0.13295E-05   -0.17482E-05  2092   0.113E-01    0.822E-03
DAV:   7    -0.123064313259E+03    0.68819E-06   -0.64488E-06  1470   0.497E-02
  14 F= -.12306431E+03 E0= -.12303118E+03  d E =-.441912E-01
       N       E                     dE             d eps       ncg     rms          rms(c)
DAV:   1    -0.123065803101E+03   -0.14892E-02   -0.18060E-01  1529   0.939E-01    0.387E-02
DAV:   2    -0.123066144357E+03   -0.34126E-03   -0.35981E-03  2152   0.254E-01    0.339E-02
DAV:   3    -0.123066140383E+03    0.39736E-05   -0.16152E-04  1616   0.193E-01    0.274E-02
DAV:   4    -0.123066133917E+03    0.64661E-05   -0.38108E-05  1640   0.145E-01    0.200E-02
DAV:   5    -0.123066129812E+03    0.41056E-05   -0.42375E-05  2584   0.828E-02    0.104E-02
DAV:   6    -0.123066127904E+03    0.19076E-05   -0.11948E-05  1716   0.807E-02    0.833E-03
DAV:   7    -0.123066127147E+03    0.75699E-06   -0.65527E-06  1497   0.349E-02
  15 F= -.12306613E+03 E0= -.12303296E+03  d E =-.181389E-02
       N       E                     dE             d eps       ncg     rms          rms(c)
DAV:   1    -0.123066964104E+03   -0.83620E-03   -0.16247E+00  1523   0.282E+00    0.115E-01
DAV:   2    -0.123070141950E+03   -0.31778E-02   -0.33252E-02  2160   0.734E-01    0.100E-01
DAV:   3    -0.123070083113E+03    0.58837E-04   -0.11609E-03  1616   0.478E-01    0.797E-02
DAV:   4    -0.123070039692E+03    0.43421E-04   -0.32825E-04  1638   0.427E-01    0.609E-02
DAV:   5    -0.123069995219E+03    0.44473E-04   -0.29469E-04  2643   0.264E-01    0.308E-02
DAV:   6    -0.123069987222E+03    0.79966E-05   -0.10762E-04  1988   0.265E-01    0.241E-02
DAV:   7    -0.123069979644E+03    0.75779E-05   -0.56449E-05  1630   0.133E-01    0.922E-03
DAV:   8    -0.123069980290E+03   -0.64558E-06   -0.20955E-05  2241   0.551E-02    0.582E-03
DAV:   9    -0.123069981887E+03   -0.15974E-05   -0.11005E-05  1518   0.270E-02    0.361E-03
DAV:  10    -0.123069982882E+03   -0.99459E-06   -0.14667E-06   905   0.175E-02
  16 F= -.12306998E+03 E0= -.12303673E+03  d E =-.566962E-02
       N       E                     dE             d eps       ncg     rms          rms(c)
DAV:   1    -0.123058414716E+03    0.11567E-01   -0.64995E+00  1523   0.565E+00    0.234E-01
DAV:   2    -0.123071469717E+03   -0.13055E-01   -0.13685E-01  2152   0.146E+00    0.213E-01
DAV:   3    -0.123071081263E+03    0.38845E-03   -0.41306E-03  1608   0.812E-01    0.158E-01
DAV:   4    -0.123070916767E+03    0.16450E-03   -0.12943E-03  1644   0.778E-01    0.126E-01
DAV:   5    -0.123070695953E+03    0.22081E-03   -0.97831E-04  2619   0.580E-01    0.639E-02
DAV:   6    -0.123070684938E+03    0.11015E-04   -0.53101E-04  1801   0.656E-01    0.496E-02
DAV:   7    -0.123070637485E+03    0.47452E-04   -0.28290E-04  1838   0.344E-01    0.163E-02
DAV:   8    -0.123070646920E+03   -0.94344E-05   -0.13133E-04  2169   0.901E-02    0.145E-02
DAV:   9    -0.123070649622E+03   -0.27023E-05   -0.34817E-05  1561   0.440E-02    0.103E-02
DAV:  10    -0.123070652276E+03   -0.26542E-05   -0.82859E-06  1582   0.344E-02    0.419E-03
DAV:  11    -0.123070657299E+03   -0.50229E-05   -0.31219E-06  1105   0.235E-02    0.303E-03
DAV:  12    -0.123070658879E+03   -0.15795E-05   -0.17353E-06   940   0.176E-02    0.127E-03
DAV:  13    -0.123070660959E+03   -0.20802E-05   -0.82034E-07   889   0.630E-03    0.108E-03
DAV:  14    -0.123070663262E+03   -0.23029E-05   -0.43712E-07   876   0.548E-03    0.661E-04
DAV:  15    -0.123070665626E+03   -0.23639E-05   -0.32152E-07   889   0.442E-03    0.762E-04
DAV:  16    -0.123070667196E+03   -0.15707E-05   -0.21526E-07   884   0.341E-03    0.506E-04
DAV:  17    -0.123070668865E+03   -0.16685E-05   -0.21527E-07   889   0.330E-03    0.516E-04
DAV:  18    -0.123070669953E+03   -0.10885E-05   -0.12820E-07   884   0.240E-03    0.346E-04
DAV:  19    -0.123070670686E+03   -0.73283E-06   -0.93395E-08   873   0.169E-03
  17 F= -.12307067E+03 E0= -.12303725E+03  d E =-.635743E-02
       N       E                     dE             d eps       ncg     rms          rms(c)
DAV:   1    -0.123069449112E+03    0.12208E-02   -0.11099E+00  1523   0.233E+00    0.948E-02
DAV:   2    -0.123071577046E+03   -0.21279E-02   -0.22000E-02  2150   0.670E-01    0.862E-02
DAV:   3    -0.123071571057E+03    0.59897E-05   -0.12044E-03  1603   0.566E-01    0.679E-02
DAV:   4    -0.123071530541E+03    0.40516E-04   -0.25194E-04  1668   0.353E-01    0.484E-02
DAV:   5    -0.123071522440E+03    0.81010E-05   -0.29498E-04  2515   0.181E-01    0.236E-02
DAV:   6    -0.123071512639E+03    0.98009E-05   -0.78589E-05  1804   0.168E-01    0.191E-02
DAV:   7    -0.123071509973E+03    0.26657E-05   -0.41319E-05  1630   0.651E-02    0.800E-03
DAV:   8    -0.123071509301E+03    0.67160E-06   -0.87182E-06  1609   0.553E-02
  18 F= -.12307151E+03 E0= -.12303815E+03  d E =-.719604E-02
       N       E                     dE             d eps       ncg     rms          rms(c)
DAV:   1    -0.123072064579E+03   -0.55461E-03   -0.19203E-02  1513   0.305E-01    0.122E-02
DAV:   2    -0.123072100612E+03   -0.36033E-04   -0.38954E-04  2185   0.864E-02    0.148E-02
DAV:   3    -0.123072098761E+03    0.18502E-05   -0.14766E-05  1587   0.581E-02    0.101E-02
DAV:   4    -0.123072098237E+03    0.52433E-06   -0.26717E-06   921   0.296E-02
  19 F= -.12307210E+03 E0= -.12303874E+03  d E =-.588936E-03
       N       E                     dE             d eps       ncg     rms          rms(c)
DAV:   1    -0.123073344536E+03   -0.12458E-02   -0.17271E-01  1496   0.914E-01    0.374E-02
DAV:   2    -0.123073677137E+03   -0.33260E-03   -0.35766E-03  2163   0.237E-01    0.415E-02
DAV:   3    -0.123073662530E+03    0.14607E-04   -0.86649E-05  1582   0.975E-02    0.296E-02
DAV:   4    -0.123073655586E+03    0.69435E-05   -0.25665E-05  1708   0.697E-02    0.228E-02
DAV:   5    -0.123073647496E+03    0.80906E-05   -0.26793E-05  2657   0.730E-02    0.648E-03
DAV:   6    -0.123073646560E+03    0.93598E-06   -0.85734E-06  1024   0.886E-02
  20 F= -.12307365E+03 E0= -.12304029E+03  d E =-.213726E-02
       N       E                     dE             d eps       ncg     rms          rms(c)
DAV:   1    -0.123074580516E+03   -0.93302E-03   -0.68962E-01  1499   0.183E+00    0.739E-02
DAV:   2    -0.123075927240E+03   -0.13467E-02   -0.14376E-02  2147   0.472E-01    0.813E-02
DAV:   3    -0.123075874767E+03    0.52473E-04   -0.39431E-04  1603   0.226E-01    0.578E-02
DAV:   4    -0.123075852957E+03    0.21810E-04   -0.10853E-04  1700   0.139E-01    0.454E-02
DAV:   5    -0.123075820658E+03    0.32299E-04   -0.97455E-05  2622   0.128E-01    0.173E-02
DAV:   6    -0.123075820054E+03    0.60437E-06   -0.40251E-05  1678   0.160E-01    0.101E-02
DAV:   7    -0.123075817598E+03    0.24553E-05   -0.13711E-05  1718   0.110E-01    0.559E-03
DAV:   8    -0.123075818265E+03   -0.66624E-06   -0.69032E-06  1529   0.448E-02
  21 F= -.12307582E+03 E0= -.12304247E+03  d E =-.430896E-02
       N       E                     dE             d eps       ncg     rms          rms(c)
DAV:   1    -0.123071427921E+03    0.43897E-02   -0.27592E+00  1499   0.365E+00    0.148E-01
DAV:   2    -0.123076784700E+03   -0.53568E-02   -0.57157E-02  2142   0.964E-01    0.164E-01
DAV:   3    -0.123076600953E+03    0.18375E-03   -0.18599E-03  1619   0.491E-01    0.118E-01
DAV:   4    -0.123076515744E+03    0.85209E-04   -0.41863E-04  1692   0.264E-01    0.925E-02
DAV:   5    -0.123076383499E+03    0.13224E-03   -0.39128E-04  2425   0.163E-01    0.280E-02
DAV:   6    -0.123076373213E+03    0.10286E-04   -0.84133E-05  2323   0.151E-01    0.179E-02
DAV:   7    -0.123076375148E+03   -0.19352E-05   -0.66567E-05  1636   0.166E-01    0.138E-02
DAV:   8    -0.123076373087E+03    0.20617E-05   -0.13637E-05  2001   0.850E-02    0.670E-03
DAV:   9    -0.123076376228E+03   -0.31418E-05   -0.60596E-06  1481   0.339E-02    0.472E-03
DAV:  10    -0.123076380295E+03   -0.40666E-05   -0.45578E-06  1337   0.300E-02    0.216E-03
DAV:  11    -0.123076382457E+03   -0.21621E-05   -0.14183E-06   924   0.792E-03    0.153E-03
DAV:  12    -0.123076384256E+03   -0.17990E-05   -0.54549E-07   878   0.922E-03    0.103E-03
DAV:  13    -0.123076386381E+03   -0.21245E-05   -0.22073E-07   889   0.496E-03    0.782E-04
DAV:  14    -0.123076390386E+03   -0.40052E-05   -0.38569E-07   905   0.535E-03    0.649E-04
DAV:  15    -0.123076391773E+03   -0.13876E-05   -0.24406E-07   932   0.272E-03    0.473E-04
DAV:  16    -0.123076392492E+03   -0.71822E-06   -0.11662E-07   862   0.232E-03
  22 F= -.12307639E+03 E0= -.12304306E+03  d E =-.488319E-02
       N       E                     dE             d eps       ncg     rms          rms(c)
DAV:   1    -0.123076112719E+03    0.27905E-03   -0.37265E-01  1502   0.134E+00    0.553E-02
DAV:   2    -0.123076821366E+03   -0.70865E-03   -0.75549E-03  2148   0.372E-01    0.619E-02
DAV:   3    -0.123076799933E+03    0.21433E-04   -0.30265E-04  1622   0.205E-01    0.429E-02
DAV:   4    -0.123076789312E+03    0.10621E-04   -0.56121E-05  1694   0.107E-01    0.337E-02
DAV:   5    -0.123076782369E+03    0.69427E-05   -0.56161E-05  2724   0.130E-01    0.146E-02
DAV:   6    -0.123076778470E+03    0.38994E-05   -0.34173E-05  1963   0.180E-01    0.108E-02
DAV:   7    -0.123076776108E+03    0.23617E-05   -0.13971E-05  1916   0.891E-02    0.458E-03
DAV:   8    -0.123076776879E+03   -0.77067E-06   -0.66444E-06  1521   0.228E-02
  23 F= -.12307678E+03 E0= -.12304344E+03  d E =-.526758E-02
       N       E                     dE             d eps       ncg     rms          rms(c)
DAV:   1    -0.123076908186E+03   -0.13208E-03   -0.30975E-03  1502   0.121E-01    0.451E-03
DAV:   2    -0.123076913682E+03   -0.54954E-05   -0.56613E-05  2155   0.334E-02    0.502E-03
DAV:   3    -0.123076913598E+03    0.84226E-07   -0.19736E-06  1006   0.203E-02
  24 F= -.12307691E+03 E0= -.12304358E+03  d E =-.136719E-03
       N       E                     dE             d eps       ncg     rms          rms(c)
DAV:   1    -0.123077265617E+03   -0.35193E-03   -0.27885E-02  1518   0.362E-01    0.140E-02
DAV:   2    -0.123077311341E+03   -0.45724E-04   -0.48758E-04  2155   0.944E-02    0.140E-02
DAV:   3    -0.123077310503E+03    0.83772E-06   -0.23647E-05  1601   0.619E-02    0.110E-02
DAV:   4    -0.123077309763E+03    0.73953E-06   -0.43389E-06  1302   0.413E-02
  25 F= -.12307731E+03 E0= -.12304399E+03  d E =-.532885E-03
       N       E                     dE             d eps       ncg     rms          rms(c)
DAV:   1    -0.123077870296E+03   -0.55979E-03   -0.11144E-01  1499   0.724E-01    0.271E-02
DAV:   2    -0.123078057341E+03   -0.18704E-03   -0.19707E-03  2155   0.183E-01    0.246E-02
DAV:   3    -0.123078056206E+03    0.11344E-05   -0.98108E-05  1603   0.144E-01    0.215E-02
DAV:   4    -0.123078053100E+03    0.31062E-05   -0.18281E-05  1582   0.973E-02    0.154E-02
DAV:   5    -0.123078051412E+03    0.16883E-05   -0.28278E-05  2182   0.346E-02    0.810E-03
DAV:   6    -0.123078050637E+03    0.77498E-06   -0.68536E-06  1515   0.517E-02
  26 F= -.12307805E+03 E0= -.12304477E+03  d E =-.127376E-02
       N       E                     dE             d eps       ncg     rms          rms(c)
DAV:   1    -0.123078605503E+03   -0.55409E-03   -0.44493E-01  1515   0.145E+00    0.539E-02
DAV:   2    -0.123079373450E+03   -0.76795E-03   -0.80657E-03  2160   0.352E-01    0.493E-02
DAV:   3    -0.123079351347E+03    0.22103E-04   -0.17324E-04  1593   0.148E-01    0.360E-02
DAV:   4    -0.123079343518E+03    0.78292E-05   -0.48301E-05  1689   0.124E-01    0.286E-02
DAV:   5    -0.123079335370E+03    0.81484E-05   -0.48391E-05  2712   0.110E-01    0.936E-03
DAV:   6    -0.123079336330E+03   -0.96014E-06   -0.22611E-05  1808   0.137E-01    0.876E-03
DAV:   7    -0.123079333449E+03    0.28807E-05   -0.77282E-06  1448   0.780E-02    0.263E-03
DAV:   8    -0.123079333742E+03   -0.29261E-06   -0.40247E-06  1241   0.140E-02
  27 F= -.12307933E+03 E0= -.12304613E+03  d E =-.255686E-02
       N       E                     dE             d eps       ncg     rms          rms(c)
DAV:   1    -0.123078181688E+03    0.11518E-02   -0.17808E+00  1515   0.289E+00    0.106E-01
DAV:   2    -0.123081279005E+03   -0.30973E-02   -0.32240E-02  2152   0.691E-01    0.978E-02
DAV:   3    -0.123081195798E+03    0.83207E-04   -0.66715E-04  1640   0.263E-01    0.743E-02
DAV:   4    -0.123081164820E+03    0.30978E-04   -0.20912E-04  1616   0.275E-01    0.580E-02
DAV:   5    -0.123081128596E+03    0.36223E-04   -0.18461E-04  2651   0.227E-01    0.228E-02
DAV:   6    -0.123081130240E+03   -0.16437E-05   -0.95747E-05  1944   0.304E-01    0.220E-02
DAV:   7    -0.123081117322E+03    0.12918E-04   -0.49613E-05  1936   0.170E-01    0.665E-03
DAV:   8    -0.123081118839E+03   -0.15163E-05   -0.22153E-05  2124   0.318E-02    0.618E-03
DAV:   9    -0.123081118985E+03   -0.14657E-06   -0.53998E-06  1403   0.194E-02
  28 F= -.12308112E+03 E0= -.12304806E+03  d E =-.434211E-02
       N       E                     dE             d eps       ncg     rms          rms(c)
DAV:   1    -0.123069499896E+03    0.11619E-01   -0.71261E+00  1507   0.579E+00    0.216E-01
DAV:   2    -0.123082621218E+03   -0.13121E-01   -0.13618E-01  2152   0.136E+00    0.214E-01
DAV:   3    -0.123082092368E+03    0.52885E-03   -0.20501E-03  1688   0.470E-01    0.150E-01
DAV:   4    -0.123081953961E+03    0.13841E-03   -0.82383E-04  1619   0.447E-01    0.119E-01
DAV:   5    -0.123081772286E+03    0.18168E-03   -0.71809E-04  2499   0.456E-01    0.440E-02
DAV:   6    -0.123081794101E+03   -0.21815E-04   -0.38526E-04  2579   0.350E-01    0.263E-02
DAV:   7    -0.123081774737E+03    0.19364E-04   -0.12413E-04  1627   0.289E-01    0.170E-02
DAV:   8    -0.123081772764E+03    0.19732E-05   -0.36976E-05  1646   0.105E-01    0.100E-02
DAV:   9    -0.123081773232E+03   -0.46851E-06   -0.16703E-05  1622   0.358E-02    0.737E-03
DAV:  10    -0.123081772965E+03    0.26694E-06   -0.60945E-06  1547   0.225E-02
  29 F= -.12308177E+03 E0= -.12304902E+03  d E =-.499609E-02
       N       E                     dE             d eps       ncg     rms          rms(c)
DAV:   1    -0.123081697915E+03    0.75317E-04   -0.15753E-01  1496   0.845E-01    0.698E-02
DAV:   2    -0.123082074425E+03   -0.37651E-03   -0.42167E-03  2118   0.248E-01    0.477E-02
DAV:   3    -0.123082068393E+03    0.60323E-05   -0.33951E-04  1606   0.304E-01    0.373E-02
DAV:   4    -0.123082048997E+03    0.19396E-04   -0.12129E-04  1652   0.280E-01    0.227E-02
DAV:   5    -0.123082041604E+03    0.73932E-05   -0.63387E-05  2342   0.187E-01    0.139E-02
DAV:   6    -0.123082038554E+03    0.30500E-05   -0.24647E-05  2140   0.116E-01    0.606E-03
DAV:   7    -0.123082039048E+03   -0.49360E-06   -0.97583E-06  1806   0.378E-02
  30 F= -.12308204E+03 E0= -.12304928E+03  d E =-.266082E-03
       N       E                     dE             d eps       ncg     rms          rms(c)
DAV:   1    -0.123082041277E+03   -0.27225E-05   -0.32186E-03  1499   0.122E-01    0.103E-02
DAV:   2    -0.123082050746E+03   -0.94692E-05   -0.88656E-05  2131   0.483E-02    0.824E-03
DAV:   3    -0.123082050814E+03   -0.68336E-07   -0.69823E-06  1556   0.485E-02
  31 F= -.12308205E+03 E0= -.12304929E+03  d E =-.277849E-03
       N       E                     dE             d eps       ncg     rms          rms(c)
DAV:   1    -0.123082048694E+03    0.20518E-05   -0.44126E-04  2030   0.546E-02    0.333E-03
DAV:   2    -0.123082050013E+03   -0.13196E-05   -0.84350E-06  1073   0.455E-02    0.369E-03
DAV:   3    -0.123082049631E+03    0.38219E-06   -0.18774E-06   958   0.368E-02
  32 F= -.12308205E+03 E0= -.12304929E+03  d E =-.276666E-03
       N       E                     dE             d eps       ncg     rms          rms(c)
DAV:   1    -0.123082147694E+03   -0.97681E-04   -0.47195E-03  1486   0.151E-01    0.713E-03
DAV:   2    -0.123082156893E+03   -0.91989E-05   -0.96604E-05  2169   0.510E-02    0.752E-03
DAV:   3    -0.123082156557E+03    0.33661E-06   -0.66403E-06  1516   0.392E-02
  33 F= -.12308216E+03 E0= -.12304939E+03  d E =-.106926E-03
       N       E                     dE             d eps       ncg     rms          rms(c)
DAV:   1    -0.123082357173E+03   -0.20028E-03   -0.42587E-02  1510   0.453E-01    0.222E-02
DAV:   2    -0.123082438174E+03   -0.81001E-04   -0.87357E-04  2177   0.141E-01    0.219E-02
DAV:   3    -0.123082435722E+03    0.24515E-05   -0.56280E-05  1563   0.105E-01    0.138E-02
DAV:   4    -0.123082434914E+03    0.80816E-06   -0.90192E-06  1660   0.384E-02
  34 F= -.12308243E+03 E0= -.12304964E+03  d E =-.385283E-03
       N       E                     dE             d eps       ncg     rms          rms(c)
DAV:   1    -0.123082491441E+03   -0.55718E-04   -0.17010E-01  1510   0.904E-01    0.419E-02
DAV:   2    -0.123082811407E+03   -0.31997E-03   -0.34122E-03  2163   0.267E-01    0.383E-02
DAV:   3    -0.123082807441E+03    0.39665E-05   -0.20966E-04  1552   0.197E-01    0.259E-02
DAV:   4    -0.123082803778E+03    0.36627E-05   -0.31510E-05  1764   0.757E-02    0.178E-02
DAV:   5    -0.123082802782E+03    0.99675E-06   -0.17332E-05  2201   0.287E-02    0.543E-03
DAV:   6    -0.123082803319E+03   -0.53778E-06   -0.62782E-06  1499   0.572E-02
  35 F= -.12308280E+03 E0= -.12304996E+03  d E =-.753688E-03
       N       E                     dE             d eps       ncg     rms          rms(c)
DAV:   1    -0.123081550309E+03    0.12525E-02   -0.67964E-01  1507   0.181E+00    0.840E-02
DAV:   2    -0.123082832422E+03   -0.12821E-02   -0.13703E-02  2161   0.531E-01    0.767E-02
DAV:   3    -0.123082805671E+03    0.26751E-04   -0.78897E-04  1533   0.399E-01    0.500E-02
DAV:   4    -0.123082791858E+03    0.13813E-04   -0.13334E-04  1824   0.158E-01    0.353E-02
DAV:   5    -0.123082791330E+03    0.52800E-06   -0.64930E-05  2600   0.151E-01    0.193E-02
DAV:   6    -0.123082788752E+03    0.25782E-05   -0.50857E-05  1640   0.208E-01    0.878E-03
DAV:   7    -0.123082786663E+03    0.20885E-05   -0.14918E-05  1608   0.996E-02    0.383E-03
DAV:   8    -0.123082787090E+03   -0.42695E-06   -0.82452E-06  1558   0.300E-02
  36 F= -.12308279E+03 E0= -.12304985E+03  d E =-.737459E-03
       N       E                     dE             d eps       ncg     rms          rms(c)
DAV:   1    -0.123082667522E+03    0.11914E-03   -0.14190E-01  1507   0.826E-01    0.386E-02
DAV:   2    -0.123082931988E+03   -0.26447E-03   -0.28211E-03  2182   0.269E-01    0.398E-02
DAV:   3    -0.123082922502E+03    0.94866E-05   -0.19462E-04  1571   0.200E-01    0.230E-02
DAV:   4    -0.123082919769E+03    0.27327E-05   -0.30383E-05  1750   0.609E-02    0.167E-02
DAV:   5    -0.123082918477E+03    0.12917E-05   -0.15402E-05  2168   0.338E-02    0.618E-03
DAV:   6    -0.123082918401E+03    0.75961E-07   -0.62855E-06  1496   0.471E-02
  37 F= -.12308292E+03 E0= -.12305003E+03  d E =-.868770E-03
       N       E                     dE             d eps       ncg     rms          rms(c)
DAV:   1    -0.123082758703E+03    0.15977E-03   -0.30759E-02  1458   0.358E-01    0.445E-02
DAV:   2    -0.123082862474E+03   -0.10377E-03   -0.12572E-03  2102   0.140E-01    0.405E-02
DAV:   3    -0.123082845212E+03    0.17262E-04   -0.83989E-05  1593   0.140E-01    0.252E-02
DAV:   4    -0.123082842350E+03    0.28611E-05   -0.66363E-05  1724   0.170E-01    0.180E-02
DAV:   5    -0.123082833714E+03    0.86363E-05   -0.33530E-05  1902   0.168E-01    0.927E-03
DAV:   6    -0.123082832715E+03    0.99902E-06   -0.11421E-05  1988   0.736E-02    0.375E-03
DAV:   7    -0.123082832693E+03    0.22410E-07   -0.24753E-06  1046   0.274E-02
  38 F= -.12308283E+03 E0= -.12304996E+03  d E =0.857084E-04
       N       E                     dE             d eps       ncg     rms          rms(c)
DAV:   1    -0.123082906789E+03   -0.74073E-04   -0.14644E-02  1461   0.246E-01    0.311E-02
DAV:   2    -0.123082954587E+03   -0.47799E-04   -0.59329E-04  2123   0.983E-02    0.286E-02
DAV:   3    -0.123082946552E+03    0.80355E-05   -0.41824E-05  1577   0.928E-02    0.177E-02
DAV:   4    -0.123082945385E+03    0.11664E-05   -0.31256E-05  1705   0.104E-01    0.119E-02
DAV:   5    -0.123082943661E+03    0.17245E-05   -0.13898E-05  1881   0.103E-01    0.565E-03
DAV:   6    -0.123082943060E+03    0.60146E-06   -0.37348E-06  1068   0.537E-02
  39 F= -.12308294E+03 E0= -.12305006E+03  d E =-.246584E-04
       N       E                     dE             d eps       ncg     rms          rms(c)
DAV:   1    -0.123082942649E+03    0.10119E-05   -0.14191E-04  2051   0.349E-02    0.318E-03
DAV:   2    -0.123082943231E+03   -0.58179E-06   -0.42152E-06  1147   0.890E-03
  40 F= -.12308294E+03 E0= -.12305006E+03  d E =-.248298E-04
       N       E                     dE             d eps       ncg     rms          rms(c)
DAV:   1    -0.123082970296E+03   -0.27647E-04   -0.28272E-02  1475   0.362E-01    0.205E-02
DAV:   2    -0.123083021795E+03   -0.51499E-04   -0.56167E-04  2163   0.845E-02    0.155E-02
DAV:   3    -0.123083019225E+03    0.25705E-05   -0.87015E-06  1630   0.305E-02    0.107E-02
DAV:   4    -0.123083019501E+03   -0.27672E-06   -0.69650E-06  1568   0.501E-02
  41 F= -.12308302E+03 E0= -.12305014E+03  d E =-.762703E-04
       N       E                     dE             d eps       ncg     rms          rms(c)
DAV:   1    -0.123082732924E+03    0.28630E-03   -0.25440E-01  1469   0.109E+00    0.622E-02
DAV:   2    -0.123083207864E+03   -0.47494E-03   -0.50930E-03  2144   0.253E-01    0.462E-02
DAV:   3    -0.123083185696E+03    0.22167E-04   -0.83315E-05  1720   0.844E-02    0.313E-02
DAV:   4    -0.123083188676E+03   -0.29800E-05   -0.64816E-05  1792   0.141E-01    0.230E-02
DAV:   5    -0.123083184786E+03    0.38903E-05   -0.34212E-05  1993   0.120E-01    0.593E-03
DAV:   6    -0.123083185003E+03   -0.21735E-06   -0.10155E-05  1931   0.312E-02    0.383E-03
DAV:   7    -0.123083184961E+03    0.42084E-07   -0.22781E-06  1014   0.227E-02
  42 F= -.12308318E+03 E0= -.12305032E+03  d E =-.241730E-03
       N       E                     dE             d eps       ncg     rms          rms(c)
DAV:   1    -0.123081420900E+03    0.17641E-02   -0.10171E+00  1477   0.217E+00    0.123E-01
DAV:   2    -0.123083347877E+03   -0.19270E-02   -0.20465E-02  2155   0.511E-01    0.930E-02
DAV:   3    -0.123083256398E+03    0.91479E-04   -0.32329E-04  1712   0.208E-01    0.628E-02
DAV:   4    -0.123083259084E+03   -0.26854E-05   -0.24734E-04  1696   0.288E-01    0.456E-02
DAV:   5    -0.123083250471E+03    0.86126E-05   -0.13809E-04  1864   0.276E-01    0.176E-02
DAV:   6    -0.123083257128E+03   -0.66565E-05   -0.96154E-05  2464   0.219E-01    0.153E-02
DAV:   7    -0.123083250858E+03    0.62695E-05   -0.26075E-05  2032   0.136E-01    0.581E-03
DAV:   8    -0.123083250885E+03   -0.26717E-07   -0.64068E-06  1513   0.295E-02
  43 F= -.12308325E+03 E0= -.12305042E+03  d E =-.307654E-03
       N       E                     dE             d eps       ncg     rms          rms(c)
DAV:   1    -0.123082333390E+03    0.91747E-03   -0.14695E-01  1474   0.729E-01    0.885E-02
DAV:   2    -0.123082793476E+03   -0.46009E-03   -0.53431E-03  2126   0.243E-01    0.575E-02
DAV:   3    -0.123082779287E+03    0.14189E-04   -0.38708E-04  1627   0.372E-01    0.441E-02
DAV:   4    -0.123082752512E+03    0.26775E-04   -0.18503E-04  1660   0.377E-01    0.277E-02
DAV:   5    -0.123082733608E+03    0.18904E-04   -0.75097E-05  1867   0.238E-01    0.152E-02
DAV:   6    -0.123082731788E+03    0.18198E-05   -0.31760E-05  2300   0.104E-01    0.568E-03
DAV:   7    -0.123082734047E+03   -0.22587E-05   -0.13585E-05  1891   0.369E-02    0.427E-03
DAV:   8    -0.123082735274E+03   -0.12265E-05   -0.26993E-06  1097   0.190E-02    0.219E-03
DAV:   9    -0.123082737302E+03   -0.20287E-05   -0.10554E-06   923   0.127E-02    0.172E-03
DAV:  10    -0.123082738926E+03   -0.16235E-05   -0.58415E-07   881   0.110E-02    0.838E-04
DAV:  11    -0.123082739907E+03   -0.98161E-06   -0.25567E-07   892   0.513E-03
  44 F= -.12308274E+03 E0= -.12304990E+03  d E =0.510977E-03
       N       E                     dE             d eps       ncg     rms          rms(c)
DAV:   1    -0.123082952567E+03   -0.21364E-03   -0.10571E-01  1480   0.619E-01    0.739E-02
DAV:   2    -0.123083298885E+03   -0.34632E-03   -0.38285E-03  2129   0.194E-01    0.480E-02
DAV:   3    -0.123083294042E+03    0.48432E-05   -0.26693E-04  1654   0.299E-01    0.369E-02
DAV:   4    -0.123083276192E+03    0.17851E-04   -0.13149E-04  1660   0.321E-01    0.237E-02
DAV:   5    -0.123083263866E+03    0.12326E-04   -0.51233E-05  1958   0.195E-01    0.121E-02
DAV:   6    -0.123083262641E+03    0.12245E-05   -0.21199E-05  2244   0.814E-02    0.489E-03
DAV:   7    -0.123083263684E+03   -0.10431E-05   -0.89127E-06  1630   0.319E-02    0.369E-03
DAV:   8    -0.123083264131E+03   -0.44651E-06   -0.20375E-06   945   0.168E-02
  45 F= -.12308326E+03 E0= -.12305043E+03  d E =-.132459E-04
       N       E                     dE             d eps       ncg     rms          rms(c)
DAV:   1    -0.123083209277E+03    0.54407E-04   -0.84134E-02  1461   0.631E-01    0.363E-02
DAV:   2    -0.123083362685E+03   -0.15341E-03   -0.16758E-03  2196   0.165E-01    0.311E-02
DAV:   3    -0.123083356450E+03    0.62350E-05   -0.63894E-05  1598   0.943E-02    0.210E-02
DAV:   4    -0.123083355099E+03    0.13507E-05   -0.23411E-05  1692   0.788E-02    0.143E-02
DAV:   5    -0.123083355101E+03   -0.15716E-08   -0.11448E-05  2110   0.514E-02    0.349E-03
DAV:   6    -0.123083355236E+03   -0.13580E-06   -0.26990E-06   934   0.462E-02
  46 F= -.12308336E+03 E0= -.12305057E+03  d E =-.911056E-04
