 vasp.6.5.1 10Mar25 (build Mar 14 2026 15:48:08) complex                         
 executed on              LinuxNV date 2026.03.24  09:42:54
 running    1 mpi-ranks, with    1 threads/rank, on    1 nodes
 distrk:  each k-point on    1 cores,    1 groups
 distr:  one band on NCORE=   1 cores,    1 groups
 Offloading initialized ...    1 GPUs detected


--------------------------------------------------------------------------------------------------------


 INCAR:
   SYSTEM = Cu(100) coverage-dependent binding (RPBE)
   ENCUT = 450
   EDIFF = 1E-6
   ISMEAR = 0
   SIGMA = 0.1
   ALGO = Normal
   NELM = 200
   PREC = Normal
   GGA = RP
   IBRION = 2
   NSW = 300
   ISIF = 2
   EDIFFG = -0.03
   ISPIN = 1
   LREAL = Auto
   LORBIT = 11
   LWAVE = .FALSE.
   LCHARG = .FALSE.

 POTCAR:    PAW_PBE Cu 22Jun2005                  
 POTCAR:    PAW_PBE C 08Apr2002                   
 POTCAR:    PAW_PBE O 08Apr2002                   
 POTCAR:    PAW_PBE Cu 22Jun2005                  
   SHA256 =  0e71e558f37a4e8407882b4609ceaae59938afaad9ced71dfe8490308a0ab630 Cu/POTCAR             
   COPYR  = (c) Copyright 22Jun2005 Georg Kresse                                                    
   COPYR  = This file is part of the software VASP. Any use, copying, and all other rights are regul
   COPYR  = If you do not have a valid VASP license, you may not use, copy or distribute this file. 
   VRHFIN =Cu: d10 p1                                                                               
   LEXCH  = PE                                                                                      
   EATOM  =  1390.9808 eV,  102.2342 Ry                                                             
                                                                                                    
   TITEL  = PAW_PBE Cu 22Jun2005                                                                    
   LULTRA =        F    use ultrasoft PP ?                                                          
   IUNSCR =        1    unscreen: 0-lin 1-nonlin 2-no                                               
   RPACOR =    2.000    partial core radius                                                         
   POMASS =   63.546; ZVAL   =   11.000    mass and valenz                                          
   RCORE  =    2.300    outmost cutoff radius                                                       
   RWIGS  =    2.200; RWIGS  =    1.164    wigner-seitz radius (au A)                               
   ENMAX  =  295.446; ENMIN  =  221.585 eV                                                          
   ICORE  =        3    local potential                                                             
   LCOR   =        T    correct aug charges                                                         
   LPAW   =        T    paw PP                                                                      
   EAUG   =  586.980                                                                                
   DEXC   =    0.000                                                                                
   RMAX   =    2.344    core radius for proj-oper                                                   
   RAUG   =    1.300    factor for augmentation sphere                                              
   RDEP   =    2.302    radius for radial grids                                                     
   RDEPT  =    1.771    core radius for aug-charge                                                  
                                                                                                    
   Atomic configuration                                                                             
    9 entries                                                                                       
     n  l   j            E        occ.                                                              
     1  0  0.50     -8850.2468   2.0000                                                             
     2  0  0.50     -1062.3498   2.0000                                                             
     2  1  1.50      -916.8226   6.0000                                                             
     3  0  0.50      -114.6929   2.0000                                                             
     3  1  1.50       -72.1325   6.0000                                                             
     3  2  2.50        -5.0394  10.0000                                                             
     4  0  0.50        -4.6097   1.0000                                                             
     4  1  0.50        -4.0817   0.0000                                                             
     4  3  2.50        -1.3606   0.0000                                                             
   Description                                                                                      
     l       E           TYP  RCUT    TYP  RCUT                                                     
     2     -5.0393973     23  2.200                                                                 
     2     10.8846608     23  2.200                                                                 
     0     -4.6097109     23  2.200                                                                 
     0      8.2520465     23  2.200                                                                 
     1     -2.7211652     23  2.200                                                                 
     1     21.7055443     23  2.200                                                                 
     3      2.7211652     23  2.300                                                                 
  local pseudopotential read in
  partial core-charges read in
  partial kinetic energy density read in
  atomic valenz-charges read in
  non local Contribution for L=            2  read in
    real space projection operators read in
  non local Contribution for L=            2  read in
    real space projection operators read in
  non local Contribution for L=            0  read in
    real space projection operators read in
  non local Contribution for L=            0  read in
    real space projection operators read in
  non local Contribution for L=            1  read in
    real space projection operators read in
  non local Contribution for L=            1  read in
    real space projection operators read in
    PAW grid and wavefunctions read in
 
   number of l-projection  operators is LMAX  =            6
   number of lm-projection operators is LMMAX =           18
 
 POTCAR:    PAW_PBE C 08Apr2002                   
   SHA256 =  253f7b50bb8d59471dbedb8285d89021f4a42ed1a2c5d38a03a736e69125dd95 C/POTCAR              
   COPYR  = (c) Copyright 08Apr2002 Georg Kresse                                                    
   COPYR  = This file is part of the software VASP. Any use, copying, and all other rights are regul
   COPYR  = If you do not have a valid VASP license, you may not use, copy or distribute this file. 
   VRHFIN =C: s2p2                                                                                  
   LEXCH  = PE                                                                                      
   EATOM  =   147.1560 eV,   10.8157 Ry                                                             
                                                                                                    
   TITEL  = PAW_PBE C 08Apr2002                                                                     
   LULTRA =        F    use ultrasoft PP ?                                                          
   IUNSCR =        1    unscreen: 0-lin 1-nonlin 2-no                                               
   RPACOR =    1.200    partial core radius                                                         
   POMASS =   12.011; ZVAL   =    4.000    mass and valenz                                          
   RCORE  =    1.500    outmost cutoff radius                                                       
   RWIGS  =    1.630; RWIGS  =    0.863    wigner-seitz radius (au A)                               
   ENMAX  =  400.000; ENMIN  =  300.000 eV                                                          
   ICORE  =        2    local potential                                                             
   LCOR   =        T    correct aug charges                                                         
   LPAW   =        T    paw PP                                                                      
   EAUG   =  644.873                                                                                
   DEXC   =    0.000                                                                                
   RMAX   =    1.529    core radius for proj-oper                                                   
   RAUG   =    1.300    factor for augmentation sphere                                              
   RDEP   =    1.501    radius for radial grids                                                     
   RDEPT  =    1.300    core radius for aug-charge                                                  
                                                                                                    
   Atomic configuration                                                                             
    4 entries                                                                                       
     n  l   j            E        occ.                                                              
     1  0  0.50      -273.3789   2.0000                                                             
     2  0  0.50       -13.7508   2.0000                                                             
     2  1  0.50        -5.2854   2.0000                                                             
     3  2  1.50        -5.4423   0.0000                                                             
   Description                                                                                      
     l       E           TYP  RCUT    TYP  RCUT                                                     
     0    -13.7508458     23  1.200                                                                 
     0     -8.2022199     23  1.200                                                                 
     1     -5.2854383     23  1.500                                                                 
     1     34.0145650     23  1.500                                                                 
     2     -5.4423304      7  1.500                                                                 
  local pseudopotential read in
  partial core-charges read in
  partial kinetic energy density read in
  atomic valenz-charges read in
  non local Contribution for L=            0  read in
    real space projection operators read in
  non local Contribution for L=            0  read in
    real space projection operators read in
  non local Contribution for L=            1  read in
    real space projection operators read in
  non local Contribution for L=            1  read in
    real space projection operators read in
    PAW grid and wavefunctions read in
 
   number of l-projection  operators is LMAX  =            4
   number of lm-projection operators is LMMAX =            8
 
 POTCAR:    PAW_PBE O 08Apr2002                   
   SHA256 =  818f92134a0a090dccd8ba1447fa70422a3b330e708bb4f08108d8ae51209ddf O/POTCAR              
   COPYR  = (c) Copyright 08Apr2002 Georg Kresse                                                    
   COPYR  = This file is part of the software VASP. Any use, copying, and all other rights are regul
   COPYR  = If you do not have a valid VASP license, you may not use, copy or distribute this file. 
   VRHFIN =O: s2p4                                                                                  
   LEXCH  = PE                                                                                      
   EATOM  =   432.3788 eV,   31.7789 Ry                                                             
                                                                                                    
   TITEL  = PAW_PBE O 08Apr2002                                                                     
   LULTRA =        F    use ultrasoft PP ?                                                          
   IUNSCR =        1    unscreen: 0-lin 1-nonlin 2-no                                               
   RPACOR =    1.200    partial core radius                                                         
   POMASS =   16.000; ZVAL   =    6.000    mass and valenz                                          
   RCORE  =    1.520    outmost cutoff radius                                                       
   RWIGS  =    1.550; RWIGS  =    0.820    wigner-seitz radius (au A)                               
   ENMAX  =  400.000; ENMIN  =  300.000 eV                                                          
   ICORE  =        2    local potential                                                             
   LCOR   =        T    correct aug charges                                                         
   LPAW   =        T    paw PP                                                                      
   EAUG   =  605.392                                                                                
   DEXC   =    0.000                                                                                
   RMAX   =    1.553    core radius for proj-oper                                                   
   RAUG   =    1.300    factor for augmentation sphere                                              
   RDEP   =    1.550    radius for radial grids                                                     
   RDEPT  =    1.329    core radius for aug-charge                                                  
                                                                                                    
   Atomic configuration                                                                             
    4 entries                                                                                       
     n  l   j            E        occ.                                                              
     1  0  0.50      -514.6923   2.0000                                                             
     2  0  0.50       -23.9615   2.0000                                                             
     2  1  0.50        -9.0305   4.0000                                                             
     3  2  1.50        -9.5241   0.0000                                                             
   Description                                                                                      
     l       E           TYP  RCUT    TYP  RCUT                                                     
     0    -23.9615318     23  1.200                                                                 
     0     -9.5240782     23  1.200                                                                 
     1     -9.0304911     23  1.520                                                                 
     1      8.1634956     23  1.520                                                                 
     2     -9.5240782      7  1.500                                                                 
  local pseudopotential read in
  partial core-charges read in
  partial kinetic energy density read in
  kinetic energy density of atom read in
  atomic valenz-charges read in
  non local Contribution for L=            0  read in
    real space projection operators read in
  non local Contribution for L=            0  read in
    real space projection operators read in
  non local Contribution for L=            1  read in
    real space projection operators read in
  non local Contribution for L=            1  read in
    real space projection operators read in
    PAW grid and wavefunctions read in
 
   number of l-projection  operators is LMAX  =            4
   number of lm-projection operators is LMMAX =            8
 
 Optimization of the real space projectors (new method)

 maximal supplied QI-value         = 16.25
 optimisation between [QCUT,QGAM] = [ 10.73, 21.61] = [ 32.22,130.83] Ry 
 Optimized for a Real-space Cutoff    1.42 Angstroem

   l    n(q)    QCUT    max X(q) W(low)/X(q) W(high)/X(q)  e(spline) 
   2      8    10.726     4.610    0.15E-03    0.25E-03    0.14E-06
   2      8    10.726     8.522    0.25E-03    0.43E-03    0.27E-06
   0      9    10.726    51.609    0.94E-04    0.10E-03    0.12E-06
   0      9    10.726    27.747    0.85E-04    0.96E-04    0.11E-06
   1      9    10.726    20.408    0.25E-03    0.14E-03    0.12E-06
   1      9    10.726    13.425    0.22E-03    0.13E-03    0.11E-06
 Optimization of the real space projectors (new method)

 maximal supplied QI-value         = 25.13
 optimisation between [QCUT,QGAM] = [ 10.81, 21.61] = [ 32.71,130.83] Ry 
 Optimized for a Real-space Cutoff    1.23 Angstroem

   l    n(q)    QCUT    max X(q) W(low)/X(q) W(high)/X(q)  e(spline) 
   0      8    10.807   115.676    0.36E-03    0.72E-03    0.24E-06
   0      8    10.807    87.132    0.35E-03    0.71E-03    0.24E-06
   1      7    10.807     4.429    0.19E-03    0.39E-03    0.11E-06
   1      7    10.807     2.733    0.14E-03    0.28E-03    0.13E-06
 Optimization of the real space projectors (new method)

 maximal supplied QI-value         = 24.76
 optimisation between [QCUT,QGAM] = [ 10.64, 21.54] = [ 31.73,129.89] Ry 
 Optimized for a Real-space Cutoff    1.23 Angstroem

   l    n(q)    QCUT    max X(q) W(low)/X(q) W(high)/X(q)  e(spline) 
   0      8    10.645    20.381    0.38E-03    0.60E-03    0.15E-06
   0      8    10.645    15.268    0.40E-03    0.65E-03    0.17E-06
   1      7    10.645     5.964    0.30E-03    0.63E-03    0.18E-06
   1      7    10.645     5.382    0.24E-03    0.53E-03    0.16E-06
 -----------------------------------------------------------------------------
|                                                                             |
|               ----> ADVICE to this user running VASP <----                  |
|                                                                             |
|     You enforced a specific xc type in the INCAR file but a different       |
|     type was found in the POTCAR file.                                      |
|     I HOPE YOU KNOW WHAT YOU ARE DOING!                                     |
|                                                                             |
 -----------------------------------------------------------------------------

  PAW_PBE Cu 22Jun2005                  :
 energy of atom  1       EATOM=-1390.9808
 kinetic energy error for atom=    0.0097 (will be added to EATOM!!)
  PAW_PBE C 08Apr2002                   :
 energy of atom  2       EATOM= -147.1560
 kinetic energy error for atom=    0.0116 (will be added to EATOM!!)
  PAW_PBE O 08Apr2002                   :
 energy of atom  3       EATOM= -432.3788
 kinetic energy error for atom=    0.0389 (will be added to EATOM!!)
 
 
 POSCAR: Cu C  O
  positions in cartesian coordinates
  No initial velocities read in


 exchange-correlation table for RP
   RHO(1)=    0.500       N(1)  =     2000
   RHO(2)=  100.500       N(2)  =     4000
 


--------------------------------------------------------------------------------------------------------


 ion  position               nearest neighbor table
   1  0.167  0.167  0.408-  10 2.56  11 2.56  13 2.56  14 2.56   3 2.56   7 2.56   4 2.56   2 2.56

   2  0.500  0.167  0.408-  11 2.56  12 2.56  14 2.56  15 2.56   8 2.56   5 2.56   1 2.56   3 2.56

   3  0.833  0.167  0.408-  10 2.56  12 2.56  13 2.56  15 2.56   1 2.56   9 2.56   6 2.56   2 2.56

   4  0.167  0.500  0.408-  13 2.56  16 2.56  14 2.56  17 2.56   6 2.56   1 2.56   7 2.56   5 2.56

   5  0.500  0.500  0.408-  14 2.56  15 2.56  17 2.56  18 2.56   2 2.56   4 2.56   6 2.56   8 2.56

   6  0.833  0.500  0.408-  13 2.56  16 2.56  15 2.56  18 2.56   4 2.56   5 2.56   9 2.56   3 2.56

   7  0.167  0.833  0.408-  10 2.56  11 2.56  16 2.56  17 2.56   1 2.56   9 2.56   8 2.56   4 2.56

   8  0.500  0.833  0.408-  11 2.56  12 2.56  17 2.56  18 2.56   2 2.56   7 2.56   9 2.56   5 2.56

   9  0.833  0.833  0.408-  10 2.56  12 2.56  16 2.56  18 2.56   3 2.56   7 2.56   6 2.56   8 2.56

  10  0.000  0.000  0.469-   1 2.56   3 2.56   7 2.56   9 2.56  11 2.56  12 2.56  13 2.56  16 2.56
                            19 2.56  21 2.56  25 2.56  27 2.56
  11  0.333  0.000  0.469-   2 2.56   8 2.56   7 2.56   1 2.56  12 2.56  10 2.56  14 2.56  17 2.56
                            20 2.56  26 2.56  25 2.56  19 2.56
  12  0.667  0.000  0.469-   2 2.56   8 2.56   3 2.56   9 2.56  11 2.56  10 2.56  15 2.56  18 2.56
                            20 2.56  26 2.56  21 2.56  27 2.56
  13  0.000  0.333  0.469-   4 2.56   6 2.56   1 2.56   3 2.56  16 2.56  14 2.56  15 2.56  10 2.56
                            22 2.56  24 2.56  19 2.56  21 2.56
  14  0.333  0.333  0.469-   5 2.56   4 2.56   2 2.56   1 2.56  15 2.56  17 2.56  11 2.56  13 2.56
                            23 2.56  22 2.56  20 2.56  19 2.56
  15  0.667  0.333  0.469-   5 2.56   2 2.56   6 2.56   3 2.56  14 2.56  18 2.56  12 2.56  13 2.56
                            23 2.56  20 2.56  24 2.56  21 2.56
  16  0.000  0.667  0.469-   4 2.56   6 2.56   7 2.56   9 2.56  13 2.56  10 2.56  17 2.56  18 2.56
                            22 2.56  24 2.56  25 2.56  27 2.56
  17  0.333  0.667  0.469-   5 2.56   4 2.56   8 2.56   7 2.56  14 2.56  18 2.56  16 2.56  11 2.56
                            23 2.56  22 2.56  26 2.56  25 2.56
  18  0.667  0.667  0.469-   5 2.56   6 2.56   8 2.56   9 2.56  15 2.56  17 2.56  16 2.56  12 2.56
                            23 2.56  24 2.56  26 2.56  27 2.56
  19  0.167  0.167  0.531-  28 2.56  29 2.56  31 2.56  32 2.56  21 2.56  25 2.56  22 2.56  20 2.56
                            10 2.56  11 2.56  13 2.56  14 2.56
  20  0.500  0.167  0.531-  29 2.56  30 2.56  32 2.56  33 2.56  26 2.56  23 2.56  19 2.56  21 2.56
                            11 2.56  12 2.56  14 2.56  15 2.56
  21  0.833  0.167  0.531-  28 2.56  30 2.56  31 2.56  33 2.56  19 2.56  27 2.56  24 2.56  20 2.56
                            10 2.56  12 2.56  13 2.56  15 2.56
  22  0.167  0.500  0.531-  31 2.56  34 2.56  32 2.56  35 2.56  24 2.56  19 2.56  25 2.56  23 2.56
                            13 2.56  16 2.56  14 2.56  17 2.56
  23  0.500  0.500  0.531-  32 2.56  33 2.56  35 2.56  36 2.56  20 2.56  22 2.56  24 2.56  26 2.56
                            14 2.56  15 2.56  17 2.56  18 2.56
  24  0.833  0.500  0.531-  31 2.56  34 2.56  33 2.56  36 2.56  22 2.56  23 2.56  27 2.56  21 2.56
                            13 2.56  16 2.56  15 2.56  18 2.56
  25  0.167  0.833  0.531-  28 2.56  29 2.56  34 2.56  35 2.56  19 2.56  27 2.56  26 2.56  22 2.56
                            10 2.56  11 2.56  16 2.56  17 2.56
  26  0.500  0.833  0.531-  29 2.56  30 2.56  35 2.56  36 2.56  20 2.56  25 2.56  27 2.56  23 2.56
                            11 2.56  12 2.56  17 2.56  18 2.56
  27  0.833  0.833  0.531-  28 2.56  30 2.56  34 2.56  36 2.56  21 2.56  25 2.56  24 2.56  26 2.56
                            10 2.56  12 2.56  16 2.56  18 2.56
  28  0.000  0.000  0.592-  37 2.35  21 2.56  25 2.56  27 2.56  19 2.56  30 2.56  31 2.56  34 2.56
                            29 2.56
  29  0.333  0.000  0.592-  37 2.35  26 2.56  20 2.56  19 2.56  25 2.56  30 2.56  32 2.56  35 2.56
                            28 2.56
  30  0.667  0.000  0.592-  20 2.56  26 2.56  21 2.56  27 2.56  29 2.56  28 2.56  33 2.56  36 2.56

  31  0.000  0.333  0.592-  37 2.35  24 2.56  22 2.56  21 2.56  19 2.56  34 2.56  33 2.56  28 2.56
                            32 2.56
  32  0.333  0.333  0.592-  37 2.35  23 2.56  20 2.56  22 2.56  19 2.56  35 2.56  33 2.56  31 2.56
                            29 2.56
  33  0.667  0.333  0.592-  23 2.56  20 2.56  24 2.56  21 2.56  32 2.56  36 2.56  30 2.56  31 2.56

  34  0.000  0.667  0.592-  22 2.56  24 2.56  25 2.56  27 2.56  31 2.56  28 2.56  35 2.56  36 2.56

  35  0.333  0.667  0.592-  23 2.56  22 2.56  26 2.56  25 2.56  32 2.56  36 2.56  34 2.56  29 2.56

  36  0.667  0.667  0.592-  23 2.56  24 2.56  26 2.56  27 2.56  33 2.56  35 2.56  34 2.56  30 2.56

  37  0.167  0.167  0.643-  38 1.16  28 2.35  31 2.35  29 2.35  32 2.35
  38  0.167  0.167  0.683-  37 1.16
 
  LATTYP: Found a simple tetragonal cell.
 ALAT       =     7.6685730420
 C/A-ratio  =     3.8367633508
  
  Lattice vectors:
  
 A1 = (   7.6685730420,   0.0000000000,   0.0000000000)
 A2 = (   0.0000000000,   7.6685730420,   0.0000000000)
 A3 = (   0.0000000000,   0.0000000000,  29.4225000000)


Analysis of symmetry for initial positions (statically):
=====================================================================
 Subroutine PRICEL returns:
 Original cell was already a primitive cell.
 

 Routine SETGRP: Setting up the symmetry group for a 
 simple tetragonal supercell.


 Subroutine GETGRP returns: Found  8 space group operations
 (whereof  2 operations were pure point group operations)
 out of a pool of 16 trial point group operations.


The static configuration has the point symmetry C_1h.
 The point group associated with its full space group is C_4v.


Analysis of symmetry for dynamics (positions and initial velocities):
=====================================================================
 Subroutine PRICEL returns:
 Original cell was already a primitive cell.
 

 Routine SETGRP: Setting up the symmetry group for a 
 simple tetragonal supercell.


 Subroutine GETGRP returns: Found  8 space group operations
 (whereof  2 operations were pure point group operations)
 out of a pool of 16 trial point group operations.


The dynamic configuration has the point symmetry C_1h.
 The point group associated with its full space group is C_4v.


Analysis of constrained symmetry for selective dynamics:
=====================================================================
 Subroutine PRICEL returns:
 Original cell was already a primitive cell.
 

 Routine SETGRP: Setting up the symmetry group for a 
 simple tetragonal supercell.


 Subroutine GETGRP returns: Found  8 space group operations
 (whereof  2 operations were pure point group operations)
 out of a pool of 16 trial point group operations.


The constrained configuration has the point symmetry C_1h.
 The point group associated with its full space group is C_4v.


 Subroutine INISYM returns: Found  8 space group operations
 (whereof  2 operations are pure point group operations),
 and found     1 'primitive' translations


----------------------------------------------------------------------------------------

                                     Primitive cell                                     

  volume of cell :    1730.2493

  direct lattice vectors                    reciprocal lattice vectors
     7.668573042  0.000000000  0.000000000     0.130402357  0.000000000  0.000000000
     0.000000000  7.668573042  0.000000000     0.000000000  0.130402357  0.000000000
     0.000000000  0.000000000 29.422500000     0.000000000  0.000000000  0.033987595

  length of vectors
     7.668573042  7.668573042 29.422500000     0.130402357  0.130402357  0.033987595

  position of ions in fractional coordinates (direct lattice)
     0.166666667  0.166666667  0.407851134
     0.500000000  0.166666667  0.407851134
     0.833333333  0.166666667  0.407851134
     0.166666667  0.500000000  0.407851134
     0.500000000  0.500000000  0.407851134
     0.833333333  0.500000000  0.407851134
     0.166666667  0.833333333  0.407851134
     0.500000000  0.833333333  0.407851134
     0.833333333  0.833333333  0.407851134
     0.000000000  0.000000000  0.469283711
     0.333333333  0.000000000  0.469283711
     0.666666667  0.000000000  0.469283711
     0.000000000  0.333333333  0.469283711
     0.333333333  0.333333333  0.469283711
     0.666666667  0.333333333  0.469283711
     0.000000000  0.666666667  0.469283711
     0.333333333  0.666666667  0.469283711
     0.666666667  0.666666667  0.469283711
     0.166666667  0.166666667  0.530716289
     0.500000000  0.166666667  0.530716289
     0.833333333  0.166666667  0.530716289
     0.166666667  0.500000000  0.530716289
     0.500000000  0.500000000  0.530716289
     0.833333333  0.500000000  0.530716289
     0.166666667  0.833333333  0.530716289
     0.500000000  0.833333333  0.530716289
     0.833333333  0.833333333  0.530716289
     0.000000000  0.000000000  0.592148866
     0.333333333  0.000000000  0.592148866
     0.666666667  0.000000000  0.592148866
     0.000000000  0.333333333  0.592148866
     0.333333333  0.333333333  0.592148866
     0.666666667  0.333333333  0.592148866
     0.000000000  0.666666667  0.592148866
     0.333333333  0.666666667  0.592148866
     0.666666667  0.666666667  0.592148866
     0.166666667  0.166666667  0.643130257
     0.166666667  0.166666667  0.682555867

  ion indices of the primitive-cell ions
   primitive index   ion index
                 1           1
                 2           2
                 3           3
                 4           4
                 5           5
                 6           6
                 7           7
                 8           8
                 9           9
                10          10
                11          11
                12          12
                13          13
                14          14
                15          15
                16          16
                17          17
                18          18
                19          19
                20          20
                21          21
                22          22
                23          23
                24          24
                25          25
                26          26
                27          27
                28          28
                29          29
                30          30
                31          31
                32          32
                33          33
                34          34
                35          35
                36          36
                37          37
                38          38

----------------------------------------------------------------------------------------

 
 
 KPOINTS: Automatic mesh                          

Automatic generation of k-mesh.
 Grid dimensions read from file:
 generate k-points for:    3    3    1

 Generating k-lattice:

  Cartesian coordinates                     Fractional coordinates (reciprocal lattice)
     0.043467452  0.000000000  0.000000000     0.333333333  0.000000000  0.000000000
     0.000000000  0.043467452  0.000000000     0.000000000  0.333333333  0.000000000
     0.000000000  0.000000000  0.033987595     0.000000000  0.000000000  1.000000000

  Length of vectors
     0.043467452  0.043467452  0.033987595

  Shift w.r.t. Gamma in fractional coordinates (k-lattice)
     0.000000000  0.000000000  0.000000000

 
 Subroutine IBZKPT returns following result:
 ===========================================
 
 Found      3 irreducible k-points:
 
 Following reciprocal coordinates:
            Coordinates               Weight
  0.000000  0.000000  0.000000      1.000000
  0.333333  0.000000  0.000000      4.000000
  0.333333  0.333333  0.000000      4.000000
 
 Following cartesian coordinates:
            Coordinates               Weight
  0.000000  0.000000  0.000000      1.000000
  0.043467  0.000000  0.000000      4.000000
  0.043467  0.043467  0.000000      4.000000
 


--------------------------------------------------------------------------------------------------------




 Dimension of arrays:
   k-points           NKPTS =      3   k-points in BZ     NKDIM =      3   number of bands    NBANDS=    243
   number of dos      NEDOS =    301   number of ions     NIONS =     38
   non local maximal  LDIM  =      6   non local SUM 2l+1 LMDIM =     18
   total plane-waves  NPLWV = 256000
   max r-space proj   IRMAX =   1833   max aug-charges    IRDMAX=   4485
   dimension x,y,z NGX =    40 NGY =   40 NGZ =  160
   dimension x,y,z NGXF=    80 NGYF=   80 NGZF=  320
   support grid    NGXF=    80 NGYF=   80 NGZF=  320
   ions per type =              36   1   1
   NGX,Y,Z   is equivalent  to a cutoff of   8.67,  8.67,  9.04 a.u.
   NGXF,Y,Z  is equivalent  to a cutoff of  17.34, 17.34, 18.08 a.u.

 SYSTEM =  Cu(100) coverage-dependent binding (RPBE
 POSCAR =  Cu C  O                                 

 Startparameter for this run:
   NWRITE =      2    write-flag & timer
   PREC   = normal    normal or accurate (medium, high low for compatibility)
   ISTART =      0    job   : 0-new  1-cont  2-samecut
   ICHARG =      2    charge: 1-file 2-atom 10-const
   ISPIN  =      1    spin polarized calculation?
   LNONCOLLINEAR =      F non collinear calculations
   LSORBIT =      F    spin-orbit coupling
   INIWAV =      1    electr: 0-lowe 1-rand  2-diag
   LASPH  =      F    aspherical Exc in radial PAW
 Electronic Relaxation 1
   ENCUT  =  450.0 eV  33.07 Ry    5.75 a.u.  13.26 13.26 50.89*2*pi/ulx,y,z
   ENINI  =  450.0     initial cutoff
   ENAUG  =  644.9 eV  augmentation charge cutoff
   NELM   =    200;   NELMIN=  2; NELMDL= -5     # of ELM steps 
   EDIFF  = 0.1E-05   stopping-criterion for ELM
   LREAL  =      T    real-space projection
   NLSPLINE    = F    spline interpolate recip. space projectors
   LCOMPAT=      F    compatible to vasp.4.4
   GGA_COMPAT  = T    GGA compatible to vasp.4.4-vasp.4.6
   LMAXPAW     = -100 max onsite density
   LMAXMIX     =    2 max onsite mixed and CHGCAR
   VOSKOWN=      0    Vosko Wilk Nusair interpolation
   ROPT   =   -0.00050  -0.00050  -0.00050
 Ionic relaxation
   EDIFFG = -.3E-01   stopping-criterion for IOM
   NSW    =    300    number of steps for IOM
   NBLOCK =      1;   KBLOCK =    300    inner block; outer block 
   IBRION =      2    ionic relax: 0-MD 1-quasi-New 2-CG
   NFREE  =      1    steps in history (QN), initial steepest desc. (CG)
   ISIF   =      2    stress and relaxation
   IWAVPR =     11    prediction:  0-non 1-charg 2-wave 3-comb
   ISYM   =      2    0-nonsym 1-usesym 2-fastsym
   LCORR  =      T    Harris-Foulkes like correction to forces

   POTIM  = 0.5000    time-step for ionic-motion
   TEIN   =    0.0    initial temperature
   TEBEG  =    0.0;   TEEND  =   0.0 temperature during run
   SMASS  =  -3.00    Nose mass-parameter (am)
   estimated Nose-frequenzy (Omega)   =  0.10E-29 period in steps = 0.13E+47 mass=  -0.134E-26a.u.
   SCALEE = 1.0000    scale energy and forces
   NPACO  =    256;   APACO  = 10.0  distance and # of slots for P.C.
   PSTRESS=    0.0 pullay stress

  Mass of Ions in am
   POMASS =  63.55 12.01 16.00
  Ionic Valenz
   ZVAL   =  11.00  4.00  6.00
  Atomic Wigner-Seitz radii
   RWIGS  =  -1.00 -1.00 -1.00
  virtual crystal weights 
   VCA    =   1.00  1.00  1.00
   NELECT =     406.0000    total number of electrons
   NUPDOWN=      -1.0000    fix difference up-down

 DOS related values:
   EMIN   =  10.00;   EMAX   =-10.00  energy-range for DOS
   EFERMI =   0.00;   METHOD = LEGACY      
   ISMEAR =     0;   SIGMA  =   0.10  broadening in eV -4-tet -1-fermi 0-gaus
   EFERMI_NEDOS =   21; number of points for ismear=-14 and -15

 Electronic relaxation 2 (details)
   IALGO  =     38    algorithm
   LDIAG  =      T    sub-space diagonalisation (order eigenvalues)
   LSUBROT=      F    optimize rotation matrix (better conditioning)
   LROBUST=      F    robust break criterion during scf (extrapolated energy error)
   ISEARCH=      0    line search for conjugate gradient (0, 1=use gradient)
   TURBO    =      0    0=normal 1=particle mesh
   IRESTART =      0    0=no restart 2=restart with 2 vectors
   NREBOOT  =      0    no. of reboots
   NMIN     =      0    reboot dimension
   EREF     =   0.00    reference energy to select bands
   IMIX   =      4    mixing-type and parameters
     AMIX     =   0.40;   BMIX     =  1.00
     AMIX_MAG =   1.60;   BMIX_MAG =  1.00
     AMIN     =   0.10
     WC   =   100.;   INIMIX=   1;  MIXPRE=   1;  MAXMIX= -45

 Intra band minimization:
   WEIMIN = 0.0010     energy-eigenvalue tresh-hold
   EBREAK =  0.10E-08  absolut break condition
   DEPER  =   0.30     relativ break condition  

   TIME   =   0.40     timestep for ELM

  volume/ion in A,a.u.               =      45.53       307.27
  Fermi-wavevector in a.u.,A,eV,Ry     =   1.009750  1.908151 13.872438  1.019595
  Thomas-Fermi vector in A             =   2.142698
 
 Write flags
   LWAVE        =      F    write WAVECAR
   LDOWNSAMPLE  =      F    k-point downsampling of WAVECAR
   LCHARG       =      F    write CHGCAR
   LVTOT        =      F    write LOCPOT, total local potential
   LVHAR        =      F    write LOCPOT, Hartree potential only
   WRT_POTENTIAL= false  ! write potential to hdf5 file
   LELF         =      F    write electronic localiz. function (ELF)
   LORBIT       =     11    0 simple, 1 ext, 2 COOP (PROOUT), +10 PAW based schemes


 Python interface
   PLUGINS active      =      F    recompile with -DPLUGINS to activate
 
 Dipole corrections
   LMONO      =      F    monopole corrections only (constant potential shift)
   LDIPOL     =      F    correct potential (dipole corrections)
   IDIPOL     =      0    1-x, 2-y, 3-z, 4-all directions 
   EPSILON    =  1.0000000 bulk dielectric constant
   LVACPOTAV  =      F  vacuum potentials using an averaging scheme for the charge density
   VACPOTFLAT =  0.1000000 required flatness to determine vacuum potential
 
Coulomb truncation method
  LTRUNCATE          =      F  Coulomb kernel truncation to be used

 
 Exchange correlation treatment:
   GGA     = RP    functional components
   XC_C    = 1    coefficients multiplying the functional components
   LIBXC   =     F    Libxc                    
   VOSKOWN =     0    Vosko Wilk Nusair interpolation
   LHFCALC =     F    Hartree Fock is set to
   LHFONE  =     F    Hartree Fock one center treatment
   AEXX    =    0.0000 exact exchange contribution

 Parameters of functionals:
   RP:
     No parameter
 
 Van der Waals corrections
   IVDW    =     0    specifies the selected vdW correction

 Linear response parameters
   LEPSILON=     F    determine dielectric tensor
   LRPA    =     F    only Hartree local field effects (RPA)
   LNABLA  =     F    use nabla operator in PAW spheres
   LVEL    =     F    velocity operator in full k-point grid
   CSHIFT  =0.1000    complex shift for real part using Kramers Kronig
   OMEGAMAX=  -1.0    maximum frequency
   DEG_THRESHOLD= 0.2000000E-02 threshold for treating states as degnerate
   RTIME   =   -0.100 relaxation time in fs
  (WPLASMAI=    0.000 imaginary part of plasma frequency in eV, 0.658/RTIME)
   DFIELD  = 0.0000000 0.0000000 0.0000000 field for delta impulse in time
 
  Optional k-point grid parameters
   LKPOINTS_OPT  =     F    use optional k-point grid
   KPOINTS_OPT_MODE=     1    mode for optional k-point grid
 
 Orbital magnetization related:
   ORBITALMAG=     F  switch on orbital magnetization
   LCHIMAG   =     F  perturbation theory with respect to B field
   DQ        =  0.001000  dq finite difference perturbation B field
   LLRAUG    =     F  two centre corrections for induced B field
   LBONE     =     F  B-component reconstruction in AE one-centre
   LVGVCALC  =     T  calculate vGv susceptibility
   LVGVAPPL  =     F  apply vGv susceptibility instead of pGv for G=0

 Random number generation:
   RANDOM_GENERATOR = DEFAULT
   PCG_SEED         = not used


--------------------------------------------------------------------------------------------------------


 conjugate gradient relaxation of ions
   using selective dynamics as specified on POSCAR
   WARNING: If single coordinates had been selected the selection of coordinates
            is made according to the corresponding   d i r e c t   coordinates!
            Don't support selection of single cartesian coordinates -- sorry ... !
 charge density and potential will be updated during run
 non-spin polarized calculation
 Variant of blocked Davidson
 Davidson routine will perform the subspace rotation
 perform sub-space diagonalisation
    after iterative eigenvector-optimisation
 modified Broyden-mixing scheme, WC =      100.0
 initial mixing is a Kerker type mixing with AMIX =  0.4000 and BMIX =      1.0000
 Hartree-type preconditioning will be used
 using additional bands            40
 real space projection scheme for non local part
 use partial core corrections
 calculate Harris-corrections to forces 
   (improved forces if not selfconsistent)
 use gradient corrections 
 use of overlap-Matrix (Vanderbilt PP)
 Gauss-broadening in eV      SIGMA  =   0.10


--------------------------------------------------------------------------------------------------------


  energy-cutoff  :      450.00
  volume of cell :     1730.25
      direct lattice vectors                 reciprocal lattice vectors
     7.668573042  0.000000000  0.000000000     0.130402357  0.000000000  0.000000000
     0.000000000  7.668573042  0.000000000     0.000000000  0.130402357  0.000000000
     0.000000000  0.000000000 29.422500000     0.000000000  0.000000000  0.033987595

  length of vectors
     7.668573042  7.668573042 29.422500000     0.130402357  0.130402357  0.033987595


 
 k-points in units of 2pi/SCALE and weight: Automatic mesh                          
   0.00000000  0.00000000  0.00000000       0.111
   0.04346745  0.00000000  0.00000000       0.444
   0.04346745  0.04346745  0.00000000       0.444
 
 k-points in reciprocal lattice and weights: Automatic mesh                          
   0.00000000  0.00000000  0.00000000       0.111
   0.33333333  0.00000000  0.00000000       0.444
   0.33333333  0.33333333  0.00000000       0.444
 
 position of ions in fractional coordinates (direct lattice) 
   0.16666667  0.16666667  0.40785113
   0.50000000  0.16666667  0.40785113
   0.83333333  0.16666667  0.40785113
   0.16666667  0.50000000  0.40785113
   0.50000000  0.50000000  0.40785113
   0.83333333  0.50000000  0.40785113
   0.16666667  0.83333333  0.40785113
   0.50000000  0.83333333  0.40785113
   0.83333333  0.83333333  0.40785113
   0.00000000  0.00000000  0.46928371
   0.33333333  0.00000000  0.46928371
   0.66666667  0.00000000  0.46928371
   0.00000000  0.33333333  0.46928371
   0.33333333  0.33333333  0.46928371
   0.66666667  0.33333333  0.46928371
   0.00000000  0.66666667  0.46928371
   0.33333333  0.66666667  0.46928371
   0.66666667  0.66666667  0.46928371
   0.16666667  0.16666667  0.53071629
   0.50000000  0.16666667  0.53071629
   0.83333333  0.16666667  0.53071629
   0.16666667  0.50000000  0.53071629
   0.50000000  0.50000000  0.53071629
   0.83333333  0.50000000  0.53071629
   0.16666667  0.83333333  0.53071629
   0.50000000  0.83333333  0.53071629
   0.83333333  0.83333333  0.53071629
   0.00000000  0.00000000  0.59214887
   0.33333333  0.00000000  0.59214887
   0.66666667  0.00000000  0.59214887
   0.00000000  0.33333333  0.59214887
   0.33333333  0.33333333  0.59214887
   0.66666667  0.33333333  0.59214887
   0.00000000  0.66666667  0.59214887
   0.33333333  0.66666667  0.59214887
   0.66666667  0.66666667  0.59214887
   0.16666667  0.16666667  0.64313026
   0.16666667  0.16666667  0.68255587
 
 position of ions in cartesian coordinates  (Angst):
   1.27809551  1.27809551 12.00000000
   3.83428652  1.27809551 12.00000000
   6.39047753  1.27809551 12.00000000
   1.27809551  3.83428652 12.00000000
   3.83428652  3.83428652 12.00000000
   6.39047753  3.83428652 12.00000000
   1.27809551  6.39047753 12.00000000
   3.83428652  6.39047753 12.00000000
   6.39047753  6.39047753 12.00000000
   0.00000000  0.00000000 13.80750000
   2.55619101  0.00000000 13.80750000
   5.11238203  0.00000000 13.80750000
   0.00000000  2.55619101 13.80750000
   2.55619101  2.55619101 13.80750000
   5.11238203  2.55619101 13.80750000
   0.00000000  5.11238203 13.80750000
   2.55619101  5.11238203 13.80750000
   5.11238203  5.11238203 13.80750000
   1.27809551  1.27809551 15.61500000
   3.83428652  1.27809551 15.61500000
   6.39047753  1.27809551 15.61500000
   1.27809551  3.83428652 15.61500000
   3.83428652  3.83428652 15.61500000
   6.39047753  3.83428652 15.61500000
   1.27809551  6.39047753 15.61500000
   3.83428652  6.39047753 15.61500000
   6.39047753  6.39047753 15.61500000
   0.00000000  0.00000000 17.42250000
   2.55619101  0.00000000 17.42250000
   5.11238203  0.00000000 17.42250000
   0.00000000  2.55619101 17.42250000
   2.55619101  2.55619101 17.42250000
   5.11238203  2.55619101 17.42250000
   0.00000000  5.11238203 17.42250000
   2.55619101  5.11238203 17.42250000
   5.11238203  5.11238203 17.42250000
   1.27809551  1.27809551 18.92250000
   1.27809551  1.27809551 20.08250000
 


--------------------------------------------------------------------------------------------------------


 k-point     1 :   0.0000 0.0000 0.0000  plane waves:   37573
 k-point     2 :   0.3333 0.0000 0.0000  plane waves:   37492
 k-point     3 :   0.3333 0.3333 0.0000  plane waves:   37511

 maximum and minimum number of plane-waves per node :     37573    37492

 maximum number of plane-waves:     37573
 maximum index in each direction: 
   IXMAX=   13   IYMAX=   13   IZMAX=   50
   IXMIN=  -13   IYMIN=  -13   IZMIN=  -50


 serial   3D FFT for wavefunctions
 parallel 3D FFT for charge:
    minimum data exchange during FFTs selected (reduces bandwidth)


 total amount of memory used by VASP MPI-rank0   699793. kBytes
=======================================================================

   base                                    :      30000. kBytes
   nonlr-proj                              :      11167. kBytes
   fftplans                                :      70088. kBytes
   grid                                    :     141952. kBytes
   one-center                              :        590. kBytes
   wavefun                                 :     445996. kBytes
 
     INWAV:  cpu time      0.0000: real time      0.0000
 Broyden mixing: mesh for mixing (old mesh)
   NGX = 27   NGY = 27   NGZ =101
  (NGX  = 80   NGY  = 80   NGZ  =320)
  gives a total of  73629 points

 initial charge density was supplied:
 charge density of overlapping atoms calculated
 number of electron     406.0000000 magnetization 
 keeping initial charge density in first step


--------------------------------------------------------------------------------------------------------


 Maximum index for non-local projection operator          1747
 Maximum index for augmentation-charges          4164 (set IRDMAX)


--------------------------------------------------------------------------------------------------------


 First call to EWALD:  gamma=   0.148
 Maximum number of real-space cells   4x   4x   1
 Maximum number of reciprocal cells   2x   2x   6

    FEWALD:  cpu time      0.0396: real time      0.0397


--------------------------------------- Ionic step        1  -------------------------------------------




--------------------------------------- Iteration      1(   1)  ---------------------------------------


    POTLOK:  cpu time      0.0256: real time      0.0257
    SETDIJ:  cpu time      0.0299: real time      0.0300
     EDDAV:  cpu time      1.7180: real time      1.7215
       DOS:  cpu time      0.0005: real time      0.0005
    --------------------------------------------
      LOOP:  cpu time      1.7740: real time      1.7776

 eigenvalue-minimisations  :  1458
 total energy-change (2. order) : 0.3606259E+04  (-0.1529689E+05)
 number of electron     406.0000000 magnetization 
 augmentation part      406.0000000 magnetization 

 Free energy of the ion-electron system (eV)
  ---------------------------------------------------
  alpha Z        PSCENC =       571.86901919
  Ewald energy   TEWEN  =    310034.98252372
  -Hartree energ DENC   =   -357769.59613851
  -exchange      EXHF   =         0.00000000
  -V(xc)+E(xc)   XCENC  =      1656.78696478
  PAW double counting   =     44699.11376719   -48475.16174595
  entropy T*S    EENTRO =        -0.07856525
  eigenvalues    EBANDS =      2271.11008331
  atomic energy  EATOM  =     50617.23271175
  Solvation  Ediel_sol  =         0.00000000
  ---------------------------------------------------
  free energy    TOTEN  =      3606.25862023 eV

  energy without entropy =     3606.33718548  energy(sigma->0) =     3606.29790285


--------------------------------------------------------------------------------------------------------




--------------------------------------- Iteration      1(   2)  ---------------------------------------


     EDDAV:  cpu time      1.6175: real time      1.6211
       DOS:  cpu time      0.0005: real time      0.0005
    --------------------------------------------
      LOOP:  cpu time      1.6181: real time      1.6216

 eigenvalue-minimisations  :  1458
 total energy-change (2. order) :-0.3302358E+04  (-0.3187167E+04)
 number of electron     406.0000000 magnetization 
 augmentation part      406.0000000 magnetization 

 Free energy of the ion-electron system (eV)
  ---------------------------------------------------
  alpha Z        PSCENC =       571.86901919
  Ewald energy   TEWEN  =    310034.98252372
  -Hartree energ DENC   =   -357769.59613851
  -exchange      EXHF   =         0.00000000
  -V(xc)+E(xc)   XCENC  =      1656.78696478
  PAW double counting   =     44699.11376719   -48475.16174595
  entropy T*S    EENTRO =        -0.02752253
  eigenvalues    EBANDS =     -1031.29943511
  atomic energy  EATOM  =     50617.23271175
  Solvation  Ediel_sol  =         0.00000000
  ---------------------------------------------------
  free energy    TOTEN  =       303.90014452 eV

  energy without entropy =      303.92766705  energy(sigma->0) =      303.91390579


--------------------------------------------------------------------------------------------------------




--------------------------------------- Iteration      1(   3)  ---------------------------------------


     EDDAV:  cpu time      1.8150: real time      1.8193
       DOS:  cpu time      0.0006: real time      0.0006
    --------------------------------------------
      LOOP:  cpu time      1.8156: real time      1.8199

 eigenvalue-minimisations  :  1670
 total energy-change (2. order) :-0.3998612E+03  (-0.3723155E+03)
 number of electron     406.0000000 magnetization 
 augmentation part      406.0000000 magnetization 

 Free energy of the ion-electron system (eV)
  ---------------------------------------------------
  alpha Z        PSCENC =       571.86901919
  Ewald energy   TEWEN  =    310034.98252372
  -Hartree energ DENC   =   -357769.59613851
  -exchange      EXHF   =         0.00000000
  -V(xc)+E(xc)   XCENC  =      1656.78696478
  PAW double counting   =     44699.11376719   -48475.16174595
  entropy T*S    EENTRO =        -0.06288890
  eigenvalues    EBANDS =     -1431.12522174
  atomic energy  EATOM  =     50617.23271175
  Solvation  Ediel_sol  =         0.00000000
  ---------------------------------------------------
  free energy    TOTEN  =       -95.96100848 eV

  energy without entropy =      -95.89811958  energy(sigma->0) =      -95.92956403


--------------------------------------------------------------------------------------------------------




--------------------------------------- Iteration      1(   4)  ---------------------------------------


     EDDAV:  cpu time      2.2146: real time      2.2191
       DOS:  cpu time      0.0006: real time      0.0006
    --------------------------------------------
      LOOP:  cpu time      2.2152: real time      2.2196

 eigenvalue-minimisations  :  2140
 total energy-change (2. order) :-0.4996089E+02  (-0.4689400E+02)
 number of electron     406.0000000 magnetization 
 augmentation part      406.0000000 magnetization 

 Free energy of the ion-electron system (eV)
  ---------------------------------------------------
  alpha Z        PSCENC =       571.86901919
  Ewald energy   TEWEN  =    310034.98252372
  -Hartree energ DENC   =   -357769.59613851
  -exchange      EXHF   =         0.00000000
  -V(xc)+E(xc)   XCENC  =      1656.78696478
  PAW double counting   =     44699.11376719   -48475.16174595
  entropy T*S    EENTRO =        -0.10506148
  eigenvalues    EBANDS =     -1481.04393999
  atomic energy  EATOM  =     50617.23271175
  Solvation  Ediel_sol  =         0.00000000
  ---------------------------------------------------
  free energy    TOTEN  =      -145.92189930 eV

  energy without entropy =     -145.81683783  energy(sigma->0) =     -145.86936857


--------------------------------------------------------------------------------------------------------




--------------------------------------- Iteration      1(   5)  ---------------------------------------


     EDDAV:  cpu time      2.2455: real time      2.2503
       DOS:  cpu time      0.0006: real time      0.0006
    CHARGE:  cpu time      0.1216: real time      0.1219
    MIXING:  cpu time      0.0251: real time      0.0251
    --------------------------------------------
      LOOP:  cpu time      2.3928: real time      2.3979

 eigenvalue-minimisations  :  2172
 total energy-change (2. order) :-0.3618787E+01  (-0.3394278E+01)
 number of electron     405.9999557 magnetization 
 augmentation part      236.9586319 magnetization 

 Broyden mixing:
  rms(total) = 0.42652E+01    rms(broyden)= 0.42649E+01
  rms(prec ) = 0.44230E+01
  weight for this iteration     100.00

 Free energy of the ion-electron system (eV)
  ---------------------------------------------------
  alpha Z        PSCENC =       571.86901919
  Ewald energy   TEWEN  =    310034.98252372
  -Hartree energ DENC   =   -357769.59613851
  -exchange      EXHF   =         0.00000000
  -V(xc)+E(xc)   XCENC  =      1656.78696478
  PAW double counting   =     44699.11376719   -48475.16174595
  entropy T*S    EENTRO =        -0.10199639
  eigenvalues    EBANDS =     -1484.66579183
  atomic energy  EATOM  =     50617.23271175
  Solvation  Ediel_sol  =         0.00000000
  ---------------------------------------------------
  free energy    TOTEN  =      -149.54068605 eV

  energy without entropy =     -149.43868967  energy(sigma->0) =     -149.48968786


--------------------------------------------------------------------------------------------------------




--------------------------------------- Iteration      1(   6)  ---------------------------------------


    POTLOK:  cpu time      0.0122: real time      0.0124
    SETDIJ:  cpu time      0.0296: real time      0.0297
     EDDAV:  cpu time      1.7984: real time      1.8021
       DOS:  cpu time      0.0005: real time      0.0005
    CHARGE:  cpu time      0.1140: real time      0.1142
    MIXING:  cpu time      0.0239: real time      0.0239
    --------------------------------------------
      LOOP:  cpu time      1.9785: real time      1.9828

 eigenvalue-minimisations  :  1644
 total energy-change (2. order) : 0.1212189E+02  (-0.3286836E+02)
 number of electron     405.9999519 magnetization 
 augmentation part      264.0838326 magnetization 

 Broyden mixing:
  rms(total) = 0.24642E+01    rms(broyden)= 0.24634E+01
  rms(prec ) = 0.25737E+01
  weight for this iteration     100.00

 eigenvalues of (default mixing * dielectric matrix)
  average eigenvalue GAMMA=   0.6399
  0.6399

 Free energy of the ion-electron system (eV)
  ---------------------------------------------------
  alpha Z        PSCENC =       571.86901919
  Ewald energy   TEWEN  =    310034.98252372
  -Hartree energ DENC   =   -356774.82108002
  -exchange      EXHF   =         0.00000000
  -V(xc)+E(xc)   XCENC  =      1614.40602138
  PAW double counting   =     45194.17760635   -48789.32085710
  entropy T*S    EENTRO =        -0.10231653
  eigenvalues    EBANDS =     -2605.84242571
  atomic energy  EATOM  =     50617.23271175
  Solvation  Ediel_sol  =         0.00000000
  ---------------------------------------------------
  free energy    TOTEN  =      -137.41879696 eV

  energy without entropy =     -137.31648043  energy(sigma->0) =     -137.36763869


--------------------------------------------------------------------------------------------------------




--------------------------------------- Iteration      1(   7)  ---------------------------------------


    POTLOK:  cpu time      0.0117: real time      0.0119
    SETDIJ:  cpu time      0.0296: real time      0.0297
     EDDAV:  cpu time      1.8154: real time      1.8191
       DOS:  cpu time      0.0006: real time      0.0005
    CHARGE:  cpu time      0.1155: real time      0.1157
    MIXING:  cpu time      0.0257: real time      0.0257
    --------------------------------------------
      LOOP:  cpu time      1.9984: real time      2.0026

 eigenvalue-minimisations  :  1670
 total energy-change (2. order) : 0.1473867E+02  (-0.6729508E+01)
 number of electron     405.9999528 magnetization 
 augmentation part      256.0353514 magnetization 

 Broyden mixing:
  rms(total) = 0.72637E+00    rms(broyden)= 0.72624E+00
  rms(prec ) = 0.75700E+00
  weight for this iteration     100.00

 eigenvalues of (default mixing * dielectric matrix)
  average eigenvalue GAMMA=   0.5873
  0.5873  0.5873

 Free energy of the ion-electron system (eV)
  ---------------------------------------------------
  alpha Z        PSCENC =       571.86901919
  Ewald energy   TEWEN  =    310034.98252372
  -Hartree energ DENC   =   -357238.26158225
  -exchange      EXHF   =         0.00000000
  -V(xc)+E(xc)   XCENC  =      1627.67384228
  PAW double counting   =     46117.31566584   -49867.45288242
  entropy T*S    EENTRO =        -0.06806184
  eigenvalues    EBANDS =     -1985.97135928
  atomic energy  EATOM  =     50617.23271175
  Solvation  Ediel_sol  =         0.00000000
  ---------------------------------------------------
  free energy    TOTEN  =      -122.68012300 eV

  energy without entropy =     -122.61206116  energy(sigma->0) =     -122.64609208


--------------------------------------------------------------------------------------------------------




--------------------------------------- Iteration      1(   8)  ---------------------------------------


    POTLOK:  cpu time      0.0124: real time      0.0126
    SETDIJ:  cpu time      0.0301: real time      0.0301
     EDDAV:  cpu time      2.0418: real time      2.0461
       DOS:  cpu time      0.0006: real time      0.0006
    CHARGE:  cpu time      0.1141: real time      0.1144
    MIXING:  cpu time      0.0245: real time      0.0245
    --------------------------------------------
      LOOP:  cpu time      2.2234: real time      2.2283

 eigenvalue-minimisations  :  1940
 total energy-change (2. order) :-0.3072379E-01  (-0.1498013E+01)
 number of electron     405.9999534 magnetization 
 augmentation part      254.4609006 magnetization 

 Broyden mixing:
  rms(total) = 0.34366E+00    rms(broyden)= 0.34350E+00
  rms(prec ) = 0.36120E+00
  weight for this iteration     100.00

 eigenvalues of (default mixing * dielectric matrix)
  average eigenvalue GAMMA=   0.8163
  1.4020  0.6153  0.4315

 Free energy of the ion-electron system (eV)
  ---------------------------------------------------
  alpha Z        PSCENC =       571.86901919
  Ewald energy   TEWEN  =    310034.98252372
  -Hartree energ DENC   =   -357286.79133095
  -exchange      EXHF   =         0.00000000
  -V(xc)+E(xc)   XCENC  =      1628.54229775
  PAW double counting   =     46505.19671762   -50289.81922468
  entropy T*S    EENTRO =        -0.05958566
  eigenvalues    EBANDS =     -1903.86397554
  atomic energy  EATOM  =     50617.23271175
  Solvation  Ediel_sol  =         0.00000000
  ---------------------------------------------------
  free energy    TOTEN  =      -122.71084679 eV

  energy without entropy =     -122.65126113  energy(sigma->0) =     -122.68105396


--------------------------------------------------------------------------------------------------------




--------------------------------------- Iteration      1(   9)  ---------------------------------------


    POTLOK:  cpu time      0.0117: real time      0.0118
    SETDIJ:  cpu time      0.0299: real time      0.0300
     EDDAV:  cpu time      2.0172: real time      2.0215
       DOS:  cpu time      0.0006: real time      0.0005
    CHARGE:  cpu time      0.1165: real time      0.1167
    MIXING:  cpu time      0.0252: real time      0.0252
    --------------------------------------------
      LOOP:  cpu time      2.2010: real time      2.2058

 eigenvalue-minimisations  :  1892
 total energy-change (2. order) :-0.2857391E+00  (-0.5557154E+00)
 number of electron     405.9999534 magnetization 
 augmentation part      252.6321248 magnetization 

 Broyden mixing:
  rms(total) = 0.41320E+00    rms(broyden)= 0.41316E+00
  rms(prec ) = 0.43333E+00
  weight for this iteration     100.00

 eigenvalues of (default mixing * dielectric matrix)
  average eigenvalue GAMMA=   0.9080
  2.0014  0.6117  0.6117  0.4070

 Free energy of the ion-electron system (eV)
  ---------------------------------------------------
  alpha Z        PSCENC =       571.86901919
  Ewald energy   TEWEN  =    310034.98252372
  -Hartree energ DENC   =   -357343.41976741
  -exchange      EXHF   =         0.00000000
  -V(xc)+E(xc)   XCENC  =      1628.28382307
  PAW double counting   =     47183.08400819   -51018.77898827
  entropy T*S    EENTRO =        -0.05862493
  eigenvalues    EBANDS =     -1796.19129119
  atomic energy  EATOM  =     50617.23271175
  Solvation  Ediel_sol  =         0.00000000
  ---------------------------------------------------
  free energy    TOTEN  =      -122.99658588 eV

  energy without entropy =     -122.93796095  energy(sigma->0) =     -122.96727341


--------------------------------------------------------------------------------------------------------




--------------------------------------- Iteration      1(  10)  ---------------------------------------


    POTLOK:  cpu time      0.0120: real time      0.0122
    SETDIJ:  cpu time      0.0298: real time      0.0299
     EDDAV:  cpu time      1.8334: real time      1.8373
       DOS:  cpu time      0.0006: real time      0.0005
    CHARGE:  cpu time      0.1151: real time      0.1153
    MIXING:  cpu time      0.0254: real time      0.0255
    --------------------------------------------
      LOOP:  cpu time      2.0163: real time      2.0206

 eigenvalue-minimisations  :  1692
 total energy-change (2. order) : 0.1287804E+00  (-0.1310339E+00)
 number of electron     405.9999537 magnetization 
 augmentation part      253.0599330 magnetization 

 Broyden mixing:
  rms(total) = 0.29367E+00    rms(broyden)= 0.29366E+00
  rms(prec ) = 0.30983E+00
  weight for this iteration     100.00

 eigenvalues of (default mixing * dielectric matrix)
  average eigenvalue GAMMA=   0.8595
  2.1362  0.7005  0.7005  0.4310  0.3291

 Free energy of the ion-electron system (eV)
  ---------------------------------------------------
  alpha Z        PSCENC =       571.86901919
  Ewald energy   TEWEN  =    310034.98252372
  -Hartree energ DENC   =   -357313.18380161
  -exchange      EXHF   =         0.00000000
  -V(xc)+E(xc)   XCENC  =      1626.32082826
  PAW double counting   =     47462.25875219   -51308.51956714
  entropy T*S    EENTRO =        -0.05675658
  eigenvalues    EBANDS =     -1813.77151528
  atomic energy  EATOM  =     50617.23271175
  Solvation  Ediel_sol  =         0.00000000
  ---------------------------------------------------
  free energy    TOTEN  =      -122.86780550 eV

  energy without entropy =     -122.81104891  energy(sigma->0) =     -122.83942721


--------------------------------------------------------------------------------------------------------




--------------------------------------- Iteration      1(  11)  ---------------------------------------


    POTLOK:  cpu time      0.0119: real time      0.0120
    SETDIJ:  cpu time      0.0300: real time      0.0301
     EDDAV:  cpu time      2.0064: real time      2.0106
       DOS:  cpu time      0.0006: real time      0.0006
    CHARGE:  cpu time      0.1170: real time      0.1173
    MIXING:  cpu time      0.0259: real time      0.0260
    --------------------------------------------
      LOOP:  cpu time      2.1918: real time      2.1966

 eigenvalue-minimisations  :  1884
 total energy-change (2. order) : 0.1263937E+00  (-0.4159542E-01)
 number of electron     405.9999536 magnetization 
 augmentation part      253.5797968 magnetization 

 Broyden mixing:
  rms(total) = 0.11652E+00    rms(broyden)= 0.11651E+00
  rms(prec ) = 0.12193E+00
  weight for this iteration     100.00

 eigenvalues of (default mixing * dielectric matrix)
  average eigenvalue GAMMA=   0.8933
  2.2287  0.7822  0.7822  0.7954  0.4224  0.3490

 Free energy of the ion-electron system (eV)
  ---------------------------------------------------
  alpha Z        PSCENC =       571.86901919
  Ewald energy   TEWEN  =    310034.98252372
  -Hartree energ DENC   =   -357291.32068321
  -exchange      EXHF   =         0.00000000
  -V(xc)+E(xc)   XCENC  =      1625.14120525
  PAW double counting   =     47542.01999731   -51387.46180399
  entropy T*S    EENTRO =        -0.05483765
  eigenvalues    EBANDS =     -1835.14954415
  atomic energy  EATOM  =     50617.23271175
  Solvation  Ediel_sol  =         0.00000000
  ---------------------------------------------------
  free energy    TOTEN  =      -122.74141176 eV

  energy without entropy =     -122.68657411  energy(sigma->0) =     -122.71399294


--------------------------------------------------------------------------------------------------------




--------------------------------------- Iteration      1(  12)  ---------------------------------------


    POTLOK:  cpu time      0.0117: real time      0.0126
    SETDIJ:  cpu time      0.0298: real time      0.0299
     EDDAV:  cpu time      2.0300: real time      2.0342
       DOS:  cpu time      0.0006: real time      0.0006
    CHARGE:  cpu time      0.1171: real time      0.1174
    MIXING:  cpu time      0.0263: real time      0.0263
    --------------------------------------------
      LOOP:  cpu time      2.2154: real time      2.2209

 eigenvalue-minimisations  :  1908
 total energy-change (2. order) : 0.1829740E-02  (-0.3377179E-01)
 number of electron     405.9999534 magnetization 
 augmentation part      254.1170643 magnetization 

 Broyden mixing:
  rms(total) = 0.70567E-01    rms(broyden)= 0.70555E-01
  rms(prec ) = 0.78112E-01
  weight for this iteration     100.00

 eigenvalues of (default mixing * dielectric matrix)
  average eigenvalue GAMMA=   0.8832
  2.3390  1.3296  0.6994  0.6994  0.3996  0.3996  0.3162

 Free energy of the ion-electron system (eV)
  ---------------------------------------------------
  alpha Z        PSCENC =       571.86901919
  Ewald energy   TEWEN  =    310034.98252372
  -Hartree energ DENC   =   -357284.77028294
  -exchange      EXHF   =         0.00000000
  -V(xc)+E(xc)   XCENC  =      1624.33725375
  PAW double counting   =     47599.83316154   -51443.87690133
  entropy T*S    EENTRO =        -0.05400156
  eigenvalues    EBANDS =     -1842.29306615
  atomic energy  EATOM  =     50617.23271175
  Solvation  Ediel_sol  =         0.00000000
  ---------------------------------------------------
  free energy    TOTEN  =      -122.73958202 eV

  energy without entropy =     -122.68558046  energy(sigma->0) =     -122.71258124


--------------------------------------------------------------------------------------------------------




--------------------------------------- Iteration      1(  13)  ---------------------------------------


    POTLOK:  cpu time      0.0117: real time      0.0119
    SETDIJ:  cpu time      0.0297: real time      0.0297
     EDDAV:  cpu time      1.8038: real time      1.8075
       DOS:  cpu time      0.0006: real time      0.0006
    CHARGE:  cpu time      0.1179: real time      0.1181
    MIXING:  cpu time      0.0273: real time      0.0273
    --------------------------------------------
      LOOP:  cpu time      1.9909: real time      1.9951

 eigenvalue-minimisations  :  1660
 total energy-change (2. order) :-0.2867712E-02  (-0.1437573E-01)
 number of electron     405.9999534 magnetization 
 augmentation part      254.2557720 magnetization 

 Broyden mixing:
  rms(total) = 0.62326E-01    rms(broyden)= 0.62323E-01
  rms(prec ) = 0.66054E-01
  weight for this iteration     100.00

 eigenvalues of (default mixing * dielectric matrix)
  average eigenvalue GAMMA=   0.9297
  2.3625  1.6355  0.8235  0.8235  0.6741  0.4417  0.3706  0.3059

 Free energy of the ion-electron system (eV)
  ---------------------------------------------------
  alpha Z        PSCENC =       571.86901919
  Ewald energy   TEWEN  =    310034.98252372
  -Hartree energ DENC   =   -357289.60449274
  -exchange      EXHF   =         0.00000000
  -V(xc)+E(xc)   XCENC  =      1624.22160797
  PAW double counting   =     47626.94145473   -51471.70197238
  entropy T*S    EENTRO =        -0.05391281
  eigenvalues    EBANDS =     -1836.62938917
  atomic energy  EATOM  =     50617.23271175
  Solvation  Ediel_sol  =         0.00000000
  ---------------------------------------------------
  free energy    TOTEN  =      -122.74244974 eV

  energy without entropy =     -122.68853692  energy(sigma->0) =     -122.71549333


--------------------------------------------------------------------------------------------------------




--------------------------------------- Iteration      1(  14)  ---------------------------------------


    POTLOK:  cpu time      0.0121: real time      0.0122
    SETDIJ:  cpu time      0.0298: real time      0.0298
     EDDAV:  cpu time      1.8316: real time      1.8354
       DOS:  cpu time      0.0006: real time      0.0006
    CHARGE:  cpu time      0.1158: real time      0.1160
    MIXING:  cpu time      0.0274: real time      0.0275
    --------------------------------------------
      LOOP:  cpu time      2.0173: real time      2.0215

 eigenvalue-minimisations  :  1692
 total energy-change (2. order) : 0.1176973E-01  (-0.2280266E-02)
 number of electron     405.9999534 magnetization 
 augmentation part      254.0906676 magnetization 

 Broyden mixing:
  rms(total) = 0.22448E-01    rms(broyden)= 0.22445E-01
  rms(prec ) = 0.25490E-01
  weight for this iteration     100.00

 eigenvalues of (default mixing * dielectric matrix)
  average eigenvalue GAMMA=   0.9494
  2.4613  1.9117  0.8511  0.8511  0.6740  0.6740  0.4290  0.3795  0.3131

 Free energy of the ion-electron system (eV)
  ---------------------------------------------------
  alpha Z        PSCENC =       571.86901919
  Ewald energy   TEWEN  =    310034.98252372
  -Hartree energ DENC   =   -357308.21946415
  -exchange      EXHF   =         0.00000000
  -V(xc)+E(xc)   XCENC  =      1624.60271730
  PAW double counting   =     47633.48318192   -51480.66458383
  entropy T*S    EENTRO =        -0.05407101
  eigenvalues    EBANDS =     -1815.96271489
  atomic energy  EATOM  =     50617.23271175
  Solvation  Ediel_sol  =         0.00000000
  ---------------------------------------------------
  free energy    TOTEN  =      -122.73068000 eV

  energy without entropy =     -122.67660899  energy(sigma->0) =     -122.70364450


--------------------------------------------------------------------------------------------------------




--------------------------------------- Iteration      1(  15)  ---------------------------------------


    POTLOK:  cpu time      0.0116: real time      0.0118
    SETDIJ:  cpu time      0.0297: real time      0.0298
     EDDAV:  cpu time      1.8631: real time      1.8670
       DOS:  cpu time      0.0006: real time      0.0005
    CHARGE:  cpu time      0.1158: real time      0.1160
    MIXING:  cpu time      0.0280: real time      0.0281
    --------------------------------------------
      LOOP:  cpu time      2.0488: real time      2.0532

 eigenvalue-minimisations  :  1724
 total energy-change (2. order) : 0.2991617E-02  (-0.1052898E-02)
 number of electron     405.9999534 magnetization 
 augmentation part      253.9917094 magnetization 

 Broyden mixing:
  rms(total) = 0.12775E-01    rms(broyden)= 0.12772E-01
  rms(prec ) = 0.14338E-01
  weight for this iteration     100.00

 eigenvalues of (default mixing * dielectric matrix)
  average eigenvalue GAMMA=   0.9191
  2.5374  1.8534  0.9565  0.8150  0.8150  0.7118  0.4403  0.3758  0.3337  0.3517

 Free energy of the ion-electron system (eV)
  ---------------------------------------------------
  alpha Z        PSCENC =       571.86901919
  Ewald energy   TEWEN  =    310034.98252372
  -Hartree energ DENC   =   -357322.04449378
  -exchange      EXHF   =         0.00000000
  -V(xc)+E(xc)   XCENC  =      1624.78207879
  PAW double counting   =     47637.96402208   -51486.42743247
  entropy T*S    EENTRO =        -0.05399078
  eigenvalues    EBANDS =     -1801.03212689
  atomic energy  EATOM  =     50617.23271175
  Solvation  Ediel_sol  =         0.00000000
  ---------------------------------------------------
  free energy    TOTEN  =      -122.72768839 eV

  energy without entropy =     -122.67369761  energy(sigma->0) =     -122.70069300


--------------------------------------------------------------------------------------------------------




--------------------------------------- Iteration      1(  16)  ---------------------------------------


    POTLOK:  cpu time      0.0116: real time      0.0117
    SETDIJ:  cpu time      0.0299: real time      0.0300
     EDDAV:  cpu time      1.9911: real time      1.9954
       DOS:  cpu time      0.0005: real time      0.0005
    CHARGE:  cpu time      0.1189: real time      0.1191
    MIXING:  cpu time      0.0347: real time      0.0348
    --------------------------------------------
      LOOP:  cpu time      2.1868: real time      2.1916

 eigenvalue-minimisations  :  1876
 total energy-change (2. order) : 0.3618638E-03  (-0.3826004E-03)
 number of electron     405.9999535 magnetization 
 augmentation part      253.9547342 magnetization 

 Broyden mixing:
  rms(total) = 0.14492E-01    rms(broyden)= 0.14490E-01
  rms(prec ) = 0.15703E-01
  weight for this iteration     100.00

 eigenvalues of (default mixing * dielectric matrix)
  average eigenvalue GAMMA=   0.9746
  2.5257  1.9825  1.5023  0.8793  0.8793  0.7274  0.7274  0.4352  0.3194  0.3834
  0.3581

 Free energy of the ion-electron system (eV)
  ---------------------------------------------------
  alpha Z        PSCENC =       571.86901919
  Ewald energy   TEWEN  =    310034.98252372
  -Hartree energ DENC   =   -357327.05254938
  -exchange      EXHF   =         0.00000000
  -V(xc)+E(xc)   XCENC  =      1624.82226018
  PAW double counting   =     47638.35129309   -51487.14040890
  entropy T*S    EENTRO =        -0.05391091
  eigenvalues    EBANDS =     -1795.73826527
  atomic energy  EATOM  =     50617.23271175
  Solvation  Ediel_sol  =         0.00000000
  ---------------------------------------------------
  free energy    TOTEN  =      -122.72732652 eV

  energy without entropy =     -122.67341561  energy(sigma->0) =     -122.70037107


--------------------------------------------------------------------------------------------------------




--------------------------------------- Iteration      1(  17)  ---------------------------------------


    POTLOK:  cpu time      0.0122: real time      0.0124
    SETDIJ:  cpu time      0.0303: real time      0.0303
     EDDAV:  cpu time      1.7492: real time      1.7529
       DOS:  cpu time      0.0006: real time      0.0006
    CHARGE:  cpu time      0.1198: real time      0.1200
    MIXING:  cpu time      0.0292: real time      0.0293
    --------------------------------------------
      LOOP:  cpu time      1.9412: real time      1.9454

 eigenvalue-minimisations  :  1601
 total energy-change (2. order) : 0.8541238E-03  (-0.1540345E-03)
 number of electron     405.9999535 magnetization 
 augmentation part      253.9833321 magnetization 

 Broyden mixing:
  rms(total) = 0.65883E-02    rms(broyden)= 0.65876E-02
  rms(prec ) = 0.76608E-02
  weight for this iteration     100.00

 eigenvalues of (default mixing * dielectric matrix)
  average eigenvalue GAMMA=   1.0054
  2.5060  2.5060  1.6336  0.8520  0.8520  0.7846  0.7462  0.6838  0.4303  0.3155
  0.3846  0.3708

 Free energy of the ion-electron system (eV)
  ---------------------------------------------------
  alpha Z        PSCENC =       571.86901919
  Ewald energy   TEWEN  =    310034.98252372
  -Hartree energ DENC   =   -357331.37127290
  -exchange      EXHF   =         0.00000000
  -V(xc)+E(xc)   XCENC  =      1624.76343140
  PAW double counting   =     47633.47316317   -51481.71053210
  entropy T*S    EENTRO =        -0.05373473
  eigenvalues    EBANDS =     -1791.91178191
  atomic energy  EATOM  =     50617.23271175
  Solvation  Ediel_sol  =         0.00000000
  ---------------------------------------------------
  free energy    TOTEN  =      -122.72647240 eV

  energy without entropy =     -122.67273767  energy(sigma->0) =     -122.69960503


--------------------------------------------------------------------------------------------------------




--------------------------------------- Iteration      1(  18)  ---------------------------------------


    POTLOK:  cpu time      0.0118: real time      0.0120
    SETDIJ:  cpu time      0.0298: real time      0.0299
     EDDAV:  cpu time      1.7459: real time      1.7496
       DOS:  cpu time      0.0006: real time      0.0006
    CHARGE:  cpu time      0.1183: real time      0.1185
    MIXING:  cpu time      0.0302: real time      0.0302
    --------------------------------------------
      LOOP:  cpu time      1.9365: real time      1.9407

 eigenvalue-minimisations  :  1603
 total energy-change (2. order) :-0.1615066E-03  (-0.1221329E-03)
 number of electron     405.9999535 magnetization 
 augmentation part      254.0103650 magnetization 

 Broyden mixing:
  rms(total) = 0.39695E-02    rms(broyden)= 0.39687E-02
  rms(prec ) = 0.46672E-02
  weight for this iteration     100.00

 eigenvalues of (default mixing * dielectric matrix)
  average eigenvalue GAMMA=   1.0541
  2.8424  2.8424  1.6699  1.3228  0.8545  0.8545  0.7066  0.7066  0.3152  0.4311
  0.3897  0.3897  0.3779

 Free energy of the ion-electron system (eV)
  ---------------------------------------------------
  alpha Z        PSCENC =       571.86901919
  Ewald energy   TEWEN  =    310034.98252372
  -Hartree energ DENC   =   -357336.20047307
  -exchange      EXHF   =         0.00000000
  -V(xc)+E(xc)   XCENC  =      1624.74831115
  PAW double counting   =     47627.50483550   -51475.28697484
  entropy T*S    EENTRO =        -0.05359309
  eigenvalues    EBANDS =     -1787.52299422
  atomic energy  EATOM  =     50617.23271175
  Solvation  Ediel_sol  =         0.00000000
  ---------------------------------------------------
  free energy    TOTEN  =      -122.72663390 eV

  energy without entropy =     -122.67304082  energy(sigma->0) =     -122.69983736


--------------------------------------------------------------------------------------------------------




--------------------------------------- Iteration      1(  19)  ---------------------------------------


    POTLOK:  cpu time      0.0115: real time      0.0116
    SETDIJ:  cpu time      0.0299: real time      0.0300
     EDDAV:  cpu time      1.7409: real time      1.7445
       DOS:  cpu time      0.0009: real time      0.0009
    CHARGE:  cpu time      0.1216: real time      0.1218
    MIXING:  cpu time      0.0307: real time      0.0308
    --------------------------------------------
[...]
 -0.000   1.922   0.000   0.000   0.000  -0.000  -0.026   0.000   0.000   0.000   0.000   0.000   0.032   0.000   0.000  -0.016
  0.000   0.000   1.937   0.000   0.000   0.000   0.000  -0.036   0.000  -0.000   0.001   0.012   0.000   0.041   0.000  -0.000
  0.000  -0.000   0.000   1.922   0.000  -0.000   0.000   0.000  -0.026   0.000   0.000   0.000   0.000   0.000   0.032   0.000
 -0.000   0.000   0.000  -0.000   1.908   0.000   0.000  -0.000   0.000  -0.008   0.000   0.000   0.000   0.000   0.000   0.000
 -0.035   0.000   0.000   0.000   0.000   0.012   0.000   0.000   0.000   0.000   0.000   0.000   0.000   0.000   0.000   0.000
  0.000  -0.026   0.000   0.000   0.000   0.000   0.010  -0.000   0.000   0.000   0.000   0.000   0.022  -0.000   0.000  -0.001
  0.000   0.000  -0.036   0.000  -0.000   0.000  -0.000   0.011   0.000   0.000  -0.031   0.001   0.000   0.018   0.000   0.000
  0.000   0.000  -0.000  -0.026   0.000   0.000   0.000   0.000   0.010   0.000   0.000  -0.000   0.000   0.000   0.022   0.000
 -0.000  -0.000  -0.000   0.000  -0.008   0.000  -0.000   0.000   0.000   0.012  -0.000   0.000   0.000   0.000   0.000  -0.000
  0.000   0.000   0.001   0.000   0.000   0.000   0.000  -0.031   0.000  -0.000   1.605  -0.120   0.000   0.160   0.000   0.000
  0.000  -0.000   0.012   0.000   0.000   0.000   0.000   0.001   0.000   0.000  -0.120   0.014  -0.000  -0.024  -0.000   0.000
 -0.000   0.032   0.000   0.000   0.000  -0.000   0.022   0.000  -0.000  -0.000  -0.000   0.000   0.181   0.000   0.000  -0.010
  0.000   0.000   0.041  -0.000   0.000   0.000   0.000   0.018   0.000   0.000   0.160  -0.024   0.000   0.114  -0.000   0.000
  0.000   0.000   0.000   0.032   0.000   0.000   0.000   0.000   0.022   0.000  -0.000   0.000   0.000   0.000   0.181  -0.000
  0.000  -0.016   0.000   0.000   0.000  -0.000  -0.001   0.000   0.000   0.000   0.000   0.000  -0.010   0.000   0.000   0.001
  0.000   0.000  -0.018   0.000  -0.000   0.000   0.000  -0.001   0.000  -0.000  -0.022   0.002  -0.000  -0.008   0.000  -0.000
 -0.000   0.000   0.000  -0.016  -0.000  -0.000   0.000   0.000  -0.001  -0.000   0.000   0.000   0.000   0.000  -0.010   0.000


------------------------ aborting loop because EDIFF is reached ----------------------------------------





 total charge

# of ion       s       p       d       tot
------------------------------------------
    1        0.434   0.258   9.204   9.896
    2        0.435   0.255   9.207   9.898
    3        0.435   0.255   9.207   9.898
    4        0.435   0.255   9.207   9.898
    5        0.436   0.253   9.210   9.899
    6        0.436   0.253   9.210   9.899
    7        0.435   0.255   9.207   9.898
    8        0.436   0.253   9.210   9.899
    9        0.436   0.253   9.210   9.899
   10        0.434   0.360   9.176   9.970
   11        0.434   0.360   9.176   9.970
   12        0.429   0.356   9.173   9.958
   13        0.434   0.360   9.176   9.970
   14        0.434   0.360   9.176   9.970
   15        0.429   0.356   9.173   9.958
   16        0.429   0.356   9.173   9.958
   17        0.429   0.356   9.173   9.958
   18        0.426   0.353   9.177   9.956
   19        0.436   0.340   9.193   9.968
   20        0.425   0.353   9.171   9.949
   21        0.425   0.353   9.171   9.949
   22        0.425   0.353   9.171   9.949
   23        0.427   0.349   9.171   9.947
   24        0.427   0.349   9.171   9.947
   25        0.425   0.353   9.171   9.949
   26        0.427   0.349   9.171   9.947
   27        0.427   0.349   9.171   9.947
   28        0.427   0.296   9.183   9.906
   29        0.427   0.296   9.183   9.906
   30        0.432   0.250   9.208   9.890
   31        0.427   0.296   9.183   9.906
   32        0.427   0.296   9.183   9.906
   33        0.432   0.250   9.208   9.890
   34        0.432   0.250   9.208   9.890
   35        0.432   0.250   9.208   9.890
   36        0.430   0.245   9.209   9.884
   37        0.924   1.521   0.000   2.445
   38        1.624   3.490   0.000   5.114
--------------------------------------------------
tot         18.056  16.093 330.780 364.929
 
    CHARGE:  cpu time      0.1447: real time      0.1450
    FORLOC:  cpu time      0.0099: real time      0.0100
    FORNL :  cpu time      0.4074: real time      0.4082
    STRESS:  cpu time      1.1802: real time      1.1825
    FORCOR:  cpu time      0.0246: real time      0.0246
    FORHAR:  cpu time      0.0110: real time      0.0110
    MIXING:  cpu time      0.0271: real time      0.0272
    OFIELD:  cpu time      0.0000: real time      0.0000

  FORCE on cell =-STRESS in cart. coord.  units (eV):
  Direction    XX          YY          ZZ          XY          YZ          ZX
  --------------------------------------------------------------------------------------
  Alpha Z   571.86902   571.86902   571.86902
  Ewald  330400.13137330400.13137************     0.00000    -0.00000    -0.00000
  Hartree343037.06292343037.06292************    -0.00002    -0.00014    -0.00014
  E(xc)   -2358.19262 -2358.19262 -2363.66108    -0.00000    -0.00002    -0.00002
  Local  ************************685922.93186    -0.00001     0.00026     0.00026
  n-local  -825.13002  -808.23296  -830.65370     1.07016    -0.00011    -0.00009
  augment  3406.28867  3406.28867  3419.80033     0.00135    -0.00023    -0.00022
  Kinetic  3398.86546  3408.43628  3405.88374     0.22627     0.00016     0.00015
  Fock        0.00000     0.00000     0.00000     0.00000     0.00000     0.00000
  -------------------------------------------------------------------------------------
  Total      -4.35286    -4.35286    -0.48144     0.00000     0.00000     0.00000
  in kB      -4.03067    -4.03067    -0.44581     0.00000     0.00000     0.00000
  external pressure =       -2.84 kB  Pullay stress =        0.00 kB


 VOLUME and BASIS-vectors are now :
 -----------------------------------------------------------------------------
  energy-cutoff  :      450.00
  volume of cell :     1730.25
      direct lattice vectors                 reciprocal lattice vectors
     7.668573042  0.000000000  0.000000000     0.130402357  0.000000000  0.000000000
     0.000000000  7.668573042  0.000000000     0.000000000  0.130402357  0.000000000
     0.000000000  0.000000000 29.422500000     0.000000000  0.000000000  0.033987595

  length of vectors
     7.668573042  7.668573042 29.422500000     0.130402357  0.130402357  0.033987595


 FORCES acting on ions
    electron-ion (+dipol)            ewald-force                    non-local-force                 convergence-correction
 -----------------------------------------------------------------------------------------------
   0.825E-04 0.825E-04 0.379E+04   0.327E-10 0.328E-10 -.379E+04   -.459E-19 0.217E-18 -.347E+01   -.249E-06 -.249E-06 0.141E-01
   -.344E+01 0.391E-03 0.379E+04   0.330E+01 0.331E-10 -.378E+04   0.103E+00 0.000E+00 -.363E+01   0.102E-03 -.288E-06 0.138E-01
   0.344E+01 0.843E-04 0.379E+04   -.330E+01 0.333E-10 -.378E+04   -.103E+00 -.651E-18 -.363E+01   -.101E-03 -.330E-06 0.138E-01
   0.391E-03 -.344E+01 0.379E+04   0.331E-10 0.330E+01 -.378E+04   0.657E-19 0.103E+00 -.363E+01   -.288E-06 0.102E-03 0.138E-01
   -.232E+01 -.232E+01 0.378E+04   0.225E+01 0.225E+01 -.378E+04   0.562E-01 0.562E-01 -.398E+01   0.502E-03 0.502E-03 0.143E-01
   0.232E+01 -.232E+01 0.378E+04   -.225E+01 0.225E+01 -.378E+04   -.562E-01 0.562E-01 -.398E+01   -.502E-03 0.502E-03 0.143E-01
   0.843E-04 0.344E+01 0.379E+04   0.333E-10 -.330E+01 -.378E+04   -.254E-18 -.103E+00 -.363E+01   -.330E-06 -.101E-03 0.138E-01
   -.232E+01 0.232E+01 0.378E+04   0.225E+01 -.225E+01 -.378E+04   0.562E-01 -.562E-01 -.398E+01   0.502E-03 -.502E-03 0.143E-01
   0.232E+01 0.232E+01 0.378E+04   -.225E+01 -.225E+01 -.378E+04   -.562E-01 -.562E-01 -.398E+01   -.502E-03 -.502E-03 0.143E-01
   0.159E+02 0.159E+02 0.136E+04   -.159E+02 -.159E+02 -.136E+04   -.814E-01 -.814E-01 -.352E+00   -.116E-05 -.116E-05 0.349E-01
   -.159E+02 0.159E+02 0.136E+04   0.159E+02 -.159E+02 -.136E+04   0.814E-01 -.814E-01 -.352E+00   0.165E-06 -.666E-06 0.349E-01
   0.770E-03 0.648E+01 0.135E+04   0.311E-10 -.627E+01 -.135E+04   -.501E-18 -.212E+00 -.309E+00   0.940E-06 -.429E-03 0.347E-01
   0.159E+02 -.159E+02 0.136E+04   -.159E+02 0.159E+02 -.136E+04   -.814E-01 0.814E-01 -.352E+00   -.666E-06 0.165E-06 0.349E-01
   -.159E+02 -.159E+02 0.136E+04   0.159E+02 0.159E+02 -.136E+04   0.814E-01 0.814E-01 -.352E+00   -.716E-07 -.716E-07 0.349E-01
   0.408E-03 -.648E+01 0.135E+04   0.313E-10 0.627E+01 -.135E+04   0.247E-17 0.212E+00 -.309E+00   0.720E-06 0.428E-03 0.347E-01
   0.648E+01 0.770E-03 0.135E+04   -.627E+01 0.311E-10 -.135E+04   -.212E+00 0.347E-17 -.309E+00   -.429E-03 0.940E-06 0.347E-01
   -.648E+01 0.408E-03 0.135E+04   0.627E+01 0.313E-10 -.135E+04   0.212E+00 0.000E+00 -.309E+00   0.428E-03 0.720E-06 0.347E-01
   0.414E-03 0.414E-03 0.134E+04   0.308E-10 0.307E-10 -.134E+04   -.143E-19 0.000E+00 -.152E+00   0.937E-06 0.937E-06 0.350E-01
   0.597E-03 0.597E-03 -.102E+04   0.493E-11 0.485E-11 0.101E+04   0.773E-19 -.217E-18 0.126E+01   -.152E-05 -.152E-05 0.469E-01
   -.226E+02 0.849E-03 -.113E+04   0.223E+02 0.268E-10 0.113E+04   0.312E+00 0.000E+00 0.168E+00   -.103E-02 -.194E-05 0.384E-01
   0.226E+02 0.715E-03 -.113E+04   -.223E+02 0.268E-10 0.113E+04   -.312E+00 0.867E-18 0.168E+00   0.103E-02 -.278E-05 0.384E-01
   0.849E-03 -.226E+02 -.113E+04   0.269E-10 0.223E+02 0.113E+04   0.259E-18 0.312E+00 0.168E+00   -.194E-05 -.103E-02 0.384E-01
   -.159E+02 -.159E+02 -.116E+04   0.158E+02 0.158E+02 0.116E+04   0.953E-01 0.953E-01 0.461E+00   0.134E-02 0.134E-02 0.382E-01
   0.159E+02 -.159E+02 -.116E+04   -.158E+02 0.158E+02 0.116E+04   -.953E-01 0.953E-01 0.461E+00   -.133E-02 0.134E-02 0.382E-01
   0.715E-03 0.226E+02 -.113E+04   0.269E-10 -.223E+02 0.113E+04   -.484E-18 -.312E+00 0.168E+00   -.278E-05 0.103E-02 0.384E-01
   -.159E+02 0.159E+02 -.116E+04   0.158E+02 -.158E+02 0.116E+04   0.953E-01 -.953E-01 0.461E+00   0.134E-02 -.133E-02 0.382E-01
   0.159E+02 0.159E+02 -.116E+04   -.158E+02 -.158E+02 0.116E+04   -.953E-01 -.953E-01 0.461E+00   -.133E-02 -.133E-02 0.382E-01
   0.107E+03 0.107E+03 -.352E+04   -.108E+03 -.108E+03 0.351E+04   0.114E+01 0.114E+01 0.299E+01   0.319E-02 0.319E-02 0.185E-01
   -.107E+03 0.107E+03 -.352E+04   0.108E+03 -.108E+03 0.351E+04   -.114E+01 0.114E+01 0.299E+01   -.319E-02 0.319E-02 0.185E-01
   0.477E-03 0.268E+02 -.359E+04   0.303E-10 -.270E+02 0.358E+04   0.858E-18 0.196E+00 0.376E+01   0.159E-05 0.189E-02 0.187E-01
   0.107E+03 -.107E+03 -.352E+04   -.108E+03 0.108E+03 0.351E+04   0.114E+01 -.114E+01 0.299E+01   0.319E-02 -.319E-02 0.185E-01
   -.107E+03 -.107E+03 -.352E+04   0.108E+03 0.108E+03 0.351E+04   -.114E+01 -.114E+01 0.299E+01   -.319E-02 -.319E-02 0.185E-01
   0.175E-03 -.268E+02 -.359E+04   0.302E-10 0.270E+02 0.358E+04   -.108E-17 -.196E+00 0.376E+01   0.701E-06 -.189E-02 0.187E-01
   0.268E+02 0.477E-03 -.359E+04   -.270E+02 0.303E-10 0.358E+04   0.196E+00 -.867E-18 0.376E+01   0.189E-02 0.159E-05 0.187E-01
   -.268E+02 0.175E-03 -.359E+04   0.270E+02 0.303E-10 0.358E+04   -.196E+00 -.434E-18 0.376E+01   -.189E-02 0.701E-06 0.187E-01
   0.288E-03 0.288E-03 -.362E+04   0.849E-11 0.842E-11 0.361E+04   -.143E-19 -.108E-18 0.355E+01   0.293E-06 0.293E-06 0.163E-01
   0.609E-04 0.609E-04 -.146E+04   0.209E-11 0.211E-11 0.145E+04   0.320E-19 0.000E+00 0.128E+02   -.365E-06 -.365E-06 0.353E-02
   -.220E-03 -.220E-03 -.254E+04   -.156E-11 -.155E-11 0.259E+04   -.254E-20 0.542E-19 -.545E+02   -.332E-06 -.332E-06 -.216E-02
 -----------------------------------------------------------------------------------------------
   -.662E-03 -.662E-03 0.429E+02   0.511E-13 0.388E-12 0.409E-11   -.250E-15 -.168E-15 -.440E+02   0.343E-06 0.343E-06 0.960E+00
 
 
 POSITION                                       TOTAL-FORCE (eV/Angst)
 -----------------------------------------------------------------------------------
      1.27810      1.27810     12.00000        -0.000000      0.000000     -0.114217
      3.83429      1.27810     12.00000        -0.033835      0.000000     -0.102997
      6.39048      1.27810     12.00000         0.033835      0.000000     -0.102997
      1.27810      3.83429     12.00000        -0.000000     -0.033835     -0.102997
      3.83429      3.83429     12.00000        -0.021808     -0.021808     -0.110176
      6.39048      3.83429     12.00000         0.021808     -0.021808     -0.110176
      1.27810      6.39048     12.00000        -0.000000      0.033835     -0.102997
      3.83429      6.39048     12.00000        -0.021808      0.021808     -0.110176
      6.39048      6.39048     12.00000         0.021808      0.021808     -0.110176
      0.00000      0.00000     13.80750        -0.069693     -0.069693      0.034417
      2.55619      0.00000     13.80750         0.069693     -0.069693      0.034417
      5.11238      0.00000     13.80750        -0.000000     -0.001711      0.149075
      0.00000      2.55619     13.80750        -0.069693      0.069693      0.034417
      2.55619      2.55619     13.80750         0.069693      0.069693      0.034417
      5.11238      2.55619     13.80750        -0.000000      0.001711      0.149075
      0.00000      5.11238     13.80750        -0.001711      0.000000      0.149075
      2.55619      5.11238     13.80750         0.001711      0.000000      0.149075
      5.11238      5.11238     13.80750        -0.000000      0.000000      0.183238
      1.27810      1.27810     15.61252        -0.000000      0.000000     -0.009094
      3.82205      1.27810     15.70945         0.000632      0.000000      0.004083
      6.40272      1.27810     15.70945        -0.000632      0.000000      0.004083
      1.27810      3.82205     15.70945        -0.000000      0.000632      0.004083
      3.82625      3.82625     15.71979        -0.001002     -0.001002      0.001037
      6.39851      3.82625     15.71979         0.001002     -0.001002      0.001037
      1.27810      6.40272     15.70945        -0.000000     -0.000632      0.004083
      3.82625      6.39851     15.71979        -0.001002      0.001002      0.001037
      6.39851      6.39851     15.71979         0.001002      0.001002      0.001037
      0.01204      0.01204     17.59710         0.001701      0.001701      0.002440
      2.54415      0.01204     17.59710        -0.001701      0.001701      0.002440
      5.11238      0.00524     17.54129        -0.000000     -0.002776      0.003200
      0.01204      2.54415     17.59710         0.001701     -0.001701      0.002440
      2.54415      2.54415     17.59710        -0.001701     -0.001701      0.002440
      5.11238      2.55095     17.54129        -0.000000      0.002776      0.003200
      0.00524      5.11238     17.54129        -0.002776      0.000000      0.003200
      2.55095      5.11238     17.54129         0.002776      0.000000      0.003200
      5.11238      5.11238     17.55501        -0.000000      0.000000      0.000021
      1.27810      1.27810     18.83795        -0.000000      0.000000     -0.006898
      1.27810      1.27810     20.03831        -0.000000      0.000000      0.022638
 -----------------------------------------------------------------------------------
    total drift:                               -0.000662     -0.000662     -0.089614


--------------------------------------------------------------------------------------------------------



  FREE ENERGIE OF THE ION-ELECTRON SYSTEM (eV)
  ---------------------------------------------------
  free  energy   TOTEN  =      -123.08335524 eV

  energy  without entropy=     -123.01778726  energy(sigma->0) =     -123.05057125
 d Force = 0.1183572E-03[ 0.690E-04, 0.168E-03]  d Energy = 0.9110564E-04 0.273E-04
 d Force = 0.2605781E+02[ 0.261E+02, 0.261E+02]  d Ewald  = 0.2605781E+02 0.227E-05
 


--------------------------------------------------------------------------------------------------------


    POTLOK:  cpu time      0.0465: real time      0.0466


--------------------------------------------------------------------------------------------------------


 Conjugate gradient step on ions:
 trial-energy change:   -0.000091  1 .order   -0.000118   -0.000168   -0.000069
  (g-gl).g = 0.970E-04      g.g   = 0.116E-03  gl.gl    = 0.162E-03
 g(Force)  = 0.116E-03   g(Stress)= 0.000E+00 ortho     = 0.222E-04
 gamma     =   0.59926
 trial     =   1.29775
 opt step  =   2.20499  (harmonic =   2.20499) maximal distance =0.00326223
 next E    =  -123.083407   (d E  =  -0.00014)


--------------------------------------------------------------------------------------------------------


  
 reached required accuracy - stopping structural energy minimisation
     LOOP+:  cpu time     13.7421: real time     13.8283
    4ORBIT:  cpu time      0.0000: real time      0.0000



 total charge

# of ion       s       p       d       tot
------------------------------------------
    1        0.434   0.258   9.204   9.896
    2        0.435   0.255   9.207   9.898
    3        0.435   0.255   9.207   9.898
    4        0.435   0.255   9.207   9.898
    5        0.436   0.253   9.210   9.899
    6        0.436   0.253   9.210   9.899
    7        0.435   0.255   9.207   9.898
    8        0.436   0.253   9.210   9.899
    9        0.436   0.253   9.210   9.899
   10        0.434   0.360   9.176   9.970
   11        0.434   0.360   9.176   9.970
   12        0.429   0.356   9.173   9.958
   13        0.434   0.360   9.176   9.970
   14        0.434   0.360   9.176   9.970
   15        0.429   0.356   9.173   9.958
   16        0.429   0.356   9.173   9.958
   17        0.429   0.356   9.173   9.958
   18        0.426   0.353   9.177   9.956
   19        0.436   0.340   9.193   9.968
   20        0.425   0.353   9.171   9.949
   21        0.425   0.353   9.171   9.949
   22        0.425   0.353   9.171   9.949
   23        0.427   0.349   9.171   9.947
   24        0.427   0.349   9.171   9.947
   25        0.425   0.353   9.171   9.949
   26        0.427   0.349   9.171   9.947
   27        0.427   0.349   9.171   9.947
   28        0.427   0.296   9.183   9.906
   29        0.427   0.296   9.183   9.906
   30        0.432   0.250   9.208   9.890
   31        0.427   0.296   9.183   9.906
   32        0.427   0.296   9.183   9.906
   33        0.432   0.250   9.208   9.890
   34        0.432   0.250   9.208   9.890
   35        0.432   0.250   9.208   9.890
   36        0.430   0.245   9.209   9.884
   37        0.924   1.521   0.000   2.445
   38        1.624   3.490   0.000   5.114
--------------------------------------------------
tot         18.056  16.093 330.780 364.929
 

 total amount of memory used by VASP MPI-rank0   699793. kBytes
=======================================================================

   base                                    :      30000. kBytes
   nonlr-proj                              :      11167. kBytes
   fftplans                                :      70088. kBytes
   grid                                    :     141952. kBytes
   one-center                              :        590. kBytes
   wavefun                                 :     445996. kBytes
 
  
  
 General timing and accounting informations for this job:
 ========================================================
  
                  Total CPU time used (sec):     1031.273
                            User time (sec):     1027.332
                          System time (sec):        3.941
                         Elapsed time (sec):     1034.062
  
                   Maximum memory used (kb):     2344760.
                   Average memory used (kb):          N/A
  
                          Minor page faults:      1065721
                          Major page faults:           96
                 Voluntary context switches:        24928
