PROCAR lm decomposed
# of k-points:    3         # of bands:  243         # of ions:   38

 k-point     1 :    0.00000000 0.00000000 0.00000000     weight = 0.11111111

band     1 # energy  -24.56589978 # occ.  2.00000000
 
ion      s     py     pz     px    dxy    dyz    dz2    dxz  x2-y2    tot
    1  0.000  0.000  0.000  0.000  0.000  0.000  0.000  0.000  0.000  0.000
    2  0.000  0.000  0.000  0.000  0.000  0.000  0.000  0.000  0.000  0.000
    3  0.000  0.000  0.000  0.000  0.000  0.000  0.000  0.000  0.000  0.000
    4  0.000  0.000  0.000  0.000  0.000  0.000  0.000  0.000  0.000  0.000
    5  0.000  0.000  0.000  0.000  0.000  0.000  0.000  0.000  0.000  0.000
    6  0.000  0.000  0.000  0.000  0.000  0.000  0.000  0.000  0.000  0.000
    7  0.000  0.000  0.000  0.000  0.000  0.000  0.000  0.000  0.000  0.000
    8  0.000  0.000  0.000  0.000  0.000  0.000  0.000  0.000  0.000  0.000
    9  0.000  0.000  0.000  0.000  0.000  0.000  0.000  0.000  0.000  0.000
   10  0.000  0.000  0.000  0.000  0.000  0.000  0.000  0.000  0.000  0.000
   11  0.000  0.000  0.000  0.000  0.000  0.000  0.000  0.000  0.000  0.000
   12  0.000  0.000  0.000  0.000  0.000  0.000  0.000  0.000  0.000  0.000
   13  0.000  0.000  0.000  0.000  0.000  0.000  0.000  0.000  0.000  0.000
   14  0.000  0.000  0.000  0.000  0.000  0.000  0.000  0.000  0.000  0.000
   15  0.000  0.000  0.000  0.000  0.000  0.000  0.000  0.000  0.000  0.000
   16  0.000  0.000  0.000  0.000  0.000  0.000  0.000  0.000  0.000  0.000
   17  0.000  0.000  0.000  0.000  0.000  0.000  0.000  0.000  0.000  0.000
   18  0.000  0.000  0.000  0.000  0.000  0.000  0.000  0.000  0.000  0.000
   19  0.000  0.000  0.000  0.000  0.000  0.000  0.000  0.000  0.000  0.000
   20  0.000  0.000  0.000  0.000  0.000  0.000  0.000  0.000  0.000  0.000
   21  0.000  0.000  0.000  0.000  0.000  0.000  0.000  0.000  0.000  0.000
   22  0.000  0.000  0.000  0.000  0.000  0.000  0.000  0.000  0.000  0.000
   23  0.000  0.000  0.000  0.000  0.000  0.000  0.000  0.000  0.000  0.000
   24  0.000  0.000  0.000  0.000  0.000  0.000  0.000  0.000  0.000  0.000
   25  0.000  0.000  0.000  0.000  0.000  0.000  0.000  0.000  0.000  0.000
   26  0.000  0.000  0.000  0.000  0.000  0.000  0.000  0.000  0.000  0.000
   27  0.000  0.000  0.000  0.000  0.000  0.000  0.000  0.000  0.000  0.000
   28  0.000  0.000  0.000  0.000  0.000  0.000  0.000  0.000  0.000  0.000
   29  0.000  0.000  0.000  0.000  0.000  0.000  0.000  0.000  0.000  0.000
   30  0.000  0.000  0.000  0.000  0.000  0.000  0.000  0.000  0.000  0.000
   31  0.000  0.000  0.000  0.000  0.000  0.000  0.000  0.000  0.000  0.000
   32  0.000  0.000  0.000  0.000  0.000  0.000  0.000  0.000  0.000  0.000
   33  0.000  0.000  0.000  0.000  0.000  0.000  0.000  0.000  0.000  0.000
   34  0.000  0.000  0.000  0.000  0.000  0.000  0.000  0.000  0.000  0.000
   35  0.000  0.000  0.000  0.000  0.000  0.000  0.000  0.000  0.000  0.000
   36  0.000  0.000  0.000  0.000  0.000  0.000  0.000  0.000  0.000  0.000
   37  0.150  0.000  0.099  0.000  0.000  0.000  0.000  0.000  0.000  0.249
   38  0.638  0.000  0.084  0.000  0.000  0.000  0.000  0.000  0.000  0.722
tot    0.788  0.000  0.183  0.000  0.000  0.000  0.000  0.000  0.000  0.972
 
band     2 # energy  -11.57563805 # occ.  2.00000000
 
ion      s     py     pz     px    dxy    dyz    dz2    dxz  x2-y2    tot
    1  0.000  0.000  0.000  0.000  0.000  0.000  0.000  0.000  0.000  0.000
    2  0.000  0.000  0.000  0.000  0.000  0.000  0.000  0.000  0.000  0.000
    3  0.000  0.000  0.000  0.000  0.000  0.000  0.000  0.000  0.000  0.000
    4  0.000  0.000  0.000  0.000  0.000  0.000  0.000  0.000  0.000  0.000
    5  0.000  0.000  0.000  0.000  0.000  0.000  0.000  0.000  0.000  0.000
    6  0.000  0.000  0.000  0.000  0.000  0.000  0.000  0.000  0.000  0.000
    7  0.000  0.000  0.000  0.000  0.000  0.000  0.000  0.000  0.000  0.000
    8  0.000  0.000  0.000  0.000  0.000  0.000  0.000  0.000  0.000  0.000
    9  0.000  0.000  0.000  0.000  0.000  0.000  0.000  0.000  0.000  0.000
   10  0.000  0.000  0.000  0.000  0.000  0.000  0.000  0.000  0.000  0.000
   11  0.000  0.000  0.000  0.000  0.000  0.000  0.000  0.000  0.000  0.000
   12  0.000  0.000  0.000  0.000  0.000  0.000  0.000  0.000  0.000  0.000
   13  0.000  0.000  0.000  0.000  0.000  0.000  0.000  0.000  0.000  0.000
   14  0.000  0.000  0.000  0.000  0.000  0.000  0.000  0.000  0.000  0.000
   15  0.000  0.000  0.000  0.000  0.000  0.000  0.000  0.000  0.000  0.000
   16  0.000  0.000  0.000  0.000  0.000  0.000  0.000  0.000  0.000  0.000
   17  0.000  0.000  0.000  0.000  0.000  0.000  0.000  0.000  0.000  0.000
   18  0.000  0.000  0.000  0.000  0.000  0.000  0.000  0.000  0.000  0.000
   19  0.004  0.000  0.001  0.000  0.000  0.000  0.000  0.000  0.000  0.005
   20  0.001  0.000  0.000  0.000  0.000  0.000  0.000  0.000  0.000  0.001
   21  0.001  0.000  0.000  0.000  0.000  0.000  0.000  0.000  0.000  0.001
   22  0.001  0.000  0.000  0.000  0.000  0.000  0.000  0.000  0.000  0.001
   23  0.000  0.000  0.000  0.000  0.000  0.000  0.000  0.000  0.000  0.001
   24  0.000  0.000  0.000  0.000  0.000  0.000  0.000  0.000  0.000  0.001
   25  0.001  0.000  0.000  0.000  0.000  0.000  0.000  0.000  0.000  0.001
   26  0.000  0.000  0.000  0.000  0.000  0.000  0.000  0.000  0.000  0.001
   27  0.000  0.000  0.000  0.000  0.000  0.000  0.000  0.000  0.000  0.001
   28  0.019  0.004  0.001  0.004  0.004  0.002  0.000  0.002  0.000  0.037
   29  0.019  0.004  0.001  0.004  0.004  0.002  0.000  0.002  0.000  0.037
   30  0.001  0.000  0.000  0.000  0.000  0.000  0.000  0.000  0.000  0.001
   31  0.019  0.004  0.001  0.004  0.004  0.002  0.000  0.002  0.000  0.037
   32  0.019  0.004  0.001  0.004  0.004  0.002  0.000  0.002  0.000  0.037
   33  0.001  0.000  0.000  0.000  0.000  0.000  0.000  0.000  0.000  0.001
   34  0.001  0.000  0.000  0.000  0.000  0.000  0.000  0.000  0.000  0.001
   35  0.001  0.000  0.000  0.000  0.000  0.000  0.000  0.000  0.000  0.001
   36  0.000  0.000  0.000  0.000  0.000  0.000  0.000  0.000  0.000  0.000
   37  0.266  0.000  0.021  0.000  0.000  0.000  0.000  0.000  0.000  0.287
   38  0.114  0.000  0.099  0.000  0.000  0.000  0.000  0.000  0.000  0.214
tot    0.469  0.015  0.127  0.015  0.017  0.009  0.003  0.009  0.000  0.663
 
band     3 # energy   -9.94142496 # occ.  2.00000000
 
ion      s     py     pz     px    dxy    dyz    dz2    dxz  x2-y2    tot
    1  0.008  0.000  0.001  0.000  0.000  0.000  0.000  0.000  0.000  0.009
    2  0.008  0.000  0.001  0.000  0.000  0.000  0.000  0.000  0.000  0.009
    3  0.008  0.000  0.001  0.000  0.000  0.000  0.000  0.000  0.000  0.009
    4  0.008  0.000  0.001  0.000  0.000  0.000  0.000  0.000  0.000  0.009
    5  0.008  0.000  0.001  0.000  0.000  0.000  0.000  0.000  0.000  0.009
    6  0.008  0.000  0.001  0.000  0.000  0.000  0.000  0.000  0.000  0.009
    7  0.008  0.000  0.001  0.000  0.000  0.000  0.000  0.000  0.000  0.009
    8  0.008  0.000  0.001  0.000  0.000  0.000  0.000  0.000  0.000  0.009
    9  0.008  0.000  0.001  0.000  0.000  0.000  0.000  0.000  0.000  0.009
   10  0.024  0.000  0.000  0.000  0.000  0.000  0.000  0.000  0.000  0.025
   11  0.024  0.000  0.000  0.000  0.000  0.000  0.000  0.000  0.000  0.025
   12  0.024  0.000  0.000  0.000  0.000  0.000  0.000  0.000  0.000  0.024
   13  0.024  0.000  0.000  0.000  0.000  0.000  0.000  0.000  0.000  0.025
   14  0.024  0.000  0.000  0.000  0.000  0.000  0.000  0.000  0.000  0.025
   15  0.024  0.000  0.000  0.000  0.000  0.000  0.000  0.000  0.000  0.024
   16  0.024  0.000  0.000  0.000  0.000  0.000  0.000  0.000  0.000  0.024
   17  0.024  0.000  0.000  0.000  0.000  0.000  0.000  0.000  0.000  0.024
   18  0.024  0.000  0.000  0.000  0.000  0.000  0.000  0.000  0.000  0.024
   19  0.021  0.000  0.000  0.000  0.000  0.000  0.000  0.000  0.000  0.021
   20  0.021  0.000  0.000  0.000  0.000  0.000  0.000  0.000  0.000  0.021
   21  0.021  0.000  0.000  0.000  0.000  0.000  0.000  0.000  0.000  0.021
   22  0.021  0.000  0.000  0.000  0.000  0.000  0.000  0.000  0.000  0.021
   23  0.021  0.000  0.000  0.000  0.000  0.000  0.000  0.000  0.000  0.021
   24  0.021  0.000  0.000  0.000  0.000  0.000  0.000  0.000  0.000  0.021
   25  0.021  0.000  0.000  0.000  0.000  0.000  0.000  0.000  0.000  0.021
   26  0.021  0.000  0.000  0.000  0.000  0.000  0.000  0.000  0.000  0.021
   27  0.021  0.000  0.000  0.000  0.000  0.000  0.000  0.000  0.000  0.021
   28  0.003  0.000  0.001  0.000  0.000  0.000  0.000  0.000  0.000  0.005
   29  0.003  0.000  0.001  0.000  0.000  0.000  0.000  0.000  0.000  0.005
   30  0.006  0.000  0.001  0.000  0.000  0.000  0.000  0.000  0.000  0.006
   31  0.003  0.000  0.001  0.000  0.000  0.000  0.000  0.000  0.000  0.005
   32  0.003  0.000  0.001  0.000  0.000  0.000  0.000  0.000  0.000  0.005
   33  0.006  0.000  0.001  0.000  0.000  0.000  0.000  0.000  0.000  0.006
   34  0.006  0.000  0.001  0.000  0.000  0.000  0.000  0.000  0.000  0.006
   35  0.006  0.000  0.001  0.000  0.000  0.000  0.000  0.000  0.000  0.006
   36  0.006  0.000  0.001  0.000  0.000  0.000  0.000  0.000  0.000  0.007
   37  0.009  0.000  0.001  0.000  0.000  0.000  0.000  0.000  0.000  0.010
   38  0.007  0.000  0.018  0.000  0.000  0.000  0.000  0.000  0.000  0.026
tot    0.532  0.000  0.039  0.000  0.000  0.000  0.001  0.000  0.000  0.574
 
band     4 # energy   -8.67700455 # occ.  2.00000000
 
ion      s     py     pz     px    dxy    dyz    dz2    dxz  x2-y2    tot
    1  0.007  0.000  0.000  0.000  0.000  0.000  0.000  0.000  0.000  0.008
    2  0.008  0.000  0.000  0.000  0.000  0.000  0.000  0.000  0.000  0.009
    3  0.008  0.000  0.000  0.000  0.000  0.000  0.000  0.000  0.000  0.009
    4  0.008  0.000  0.000  0.000  0.000  0.000  0.000  0.000  0.000  0.009
    5  0.009  0.000  0.000  0.000  0.000  0.000  0.000  0.000  0.000  0.009
    6  0.009  0.000  0.000  0.000  0.000  0.000  0.000  0.000  0.000  0.009
    7  0.008  0.000  0.000  0.000  0.000  0.000  0.000  0.000  0.000  0.009
    8  0.009  0.000  0.000  0.000  0.000  0.000  0.000  0.000  0.000  0.009
    9  0.009  0.000  0.000  0.000  0.000  0.000  0.000  0.000  0.000  0.009
   10  0.005  0.000  0.001  0.000  0.000  0.000  0.000  0.000  0.000  0.007
   11  0.005  0.000  0.001  0.000  0.000  0.000  0.000  0.000  0.000  0.007
   12  0.007  0.000  0.001  0.000  0.000  0.000  0.000  0.000  0.000  0.008
   13  0.005  0.000  0.001  0.000  0.000  0.000  0.000  0.000  0.000  0.007
   14  0.005  0.000  0.001  0.000  0.000  0.000  0.000  0.000  0.000  0.007
   15  0.007  0.000  0.001  0.000  0.000  0.000  0.000  0.000  0.000  0.008
   16  0.007  0.000  0.001  0.000  0.000  0.000  0.000  0.000  0.000  0.008
   17  0.007  0.000  0.001  0.000  0.000  0.000  0.000  0.000  0.000  0.008
   18  0.008  0.000  0.001  0.000  0.000  0.000  0.000  0.000  0.000  0.009
   19  0.007  0.000  0.003  0.000  0.000  0.000  0.000  0.000  0.000  0.010
   20  0.003  0.000  0.002  0.000  0.000  0.000  0.000  0.000  0.000  0.005
   21  0.003  0.000  0.002  0.000  0.000  0.000  0.000  0.000  0.000  0.005
   22  0.003  0.000  0.002  0.000  0.000  0.000  0.000  0.000  0.000  0.005
   23  0.002  0.000  0.001  0.000  0.000  0.000  0.000  0.000  0.000  0.003
   24  0.002  0.000  0.001  0.000  0.000  0.000  0.000  0.000  0.000  0.003
   25  0.003  0.000  0.002  0.000  0.000  0.000  0.000  0.000  0.000  0.005
   26  0.002  0.000  0.001  0.000  0.000  0.000  0.000  0.000  0.000  0.003
   27  0.002  0.000  0.001  0.000  0.000  0.000  0.000  0.000  0.000  0.003
   28  0.019  0.001  0.000  0.001  0.002  0.000  0.002  0.000  0.000  0.024
   29  0.019  0.001  0.000  0.001  0.002  0.000  0.002  0.000  0.000  0.024
   30  0.007  0.000  0.000  0.000  0.000  0.000  0.000  0.000  0.000  0.007
   31  0.019  0.001  0.000  0.001  0.002  0.000  0.002  0.000  0.000  0.024
   32  0.019  0.001  0.000  0.001  0.002  0.000  0.002  0.000  0.000  0.024
   33  0.007  0.000  0.000  0.000  0.000  0.000  0.000  0.000  0.000  0.007
   34  0.007  0.000  0.000  0.000  0.000  0.000  0.000  0.000  0.000  0.007
   35  0.007  0.000  0.000  0.000  0.000  0.000  0.000  0.000  0.000  0.007
   36  0.005  0.000  0.000  0.000  0.000  0.000  0.000  0.000  0.000  0.005
   37  0.003  0.000  0.088  0.000  0.000  0.000  0.000  0.000  0.000  0.091
   38  0.037  0.000  0.239  0.000  0.000  0.000  0.000  0.000  0.000  0.276
tot    0.302  0.003  0.356  0.003  0.006  0.000  0.015  0.000  0.000  0.688
 
band     5 # energy   -8.12172047 # occ.  2.00000000
 
ion      s     py     pz     px    dxy    dyz    dz2    dxz  x2-y2    tot
    1  0.000  0.000  0.000  0.000  0.000  0.000  0.000  0.000  0.000  0.000
    2  0.000  0.000  0.000  0.000  0.000  0.000  0.000  0.000  0.000  0.000
    3  0.000  0.000  0.000  0.000  0.000  0.000  0.000  0.000  0.000  0.000
    4  0.000  0.000  0.000  0.000  0.000  0.000  0.000  0.000  0.000  0.000
    5  0.000  0.000  0.000  0.000  0.000  0.000  0.000  0.000  0.000  0.000
    6  0.000  0.000  0.000  0.000  0.000  0.000  0.000  0.000  0.000  0.000
    7  0.000  0.000  0.000  0.000  0.000  0.000  0.000  0.000  0.000  0.000
    8  0.000  0.000  0.000  0.000  0.000  0.000  0.000  0.000  0.000  0.000
    9  0.000  0.000  0.000  0.000  0.000  0.000  0.000  0.000  0.000  0.000
   10  0.000  0.000  0.000  0.000  0.000  0.000  0.000  0.000  0.000  0.000
   11  0.002  0.000  0.000  0.000  0.000  0.000  0.000  0.000  0.000  0.002
   12  0.000  0.000  0.000  0.000  0.000  0.000  0.000  0.000  0.000  0.001
   13  0.002  0.000  0.000  0.000  0.000  0.000  0.000  0.000  0.000  0.002
   14  0.000  0.000  0.000  0.000  0.000  0.000  0.000  0.000  0.000  0.000
   15  0.000  0.000  0.000  0.000  0.000  0.000  0.000  0.000  0.000  0.001
   16  0.000  0.000  0.000  0.000  0.000  0.000  0.000  0.000  0.000  0.001
   17  0.000  0.000  0.000  0.000  0.000  0.000  0.000  0.000  0.000  0.001
   18  0.000  0.000  0.000  0.000  0.000  0.000  0.000  0.000  0.000  0.000
   19  0.000  0.001  0.000  0.001  0.000  0.000  0.000  0.000  0.000  0.002
   20  0.002  0.001  0.000  0.000  0.000  0.000  0.000  0.000  0.000  0.003
   21  0.002  0.001  0.000  0.000  0.000  0.000  0.000  0.000  0.000  0.003
   22  0.002  0.000  0.000  0.001  0.000  0.000  0.000  0.000  0.000  0.003
   23  0.000  0.000  0.000  0.000  0.000  0.000  0.000  0.000  0.000  0.001
   24  0.006  0.000  0.000  0.000  0.000  0.000  0.000  0.000  0.000  0.007
   25  0.002  0.000  0.000  0.001  0.000  0.000  0.000  0.000  0.000  0.003
   26  0.006  0.000  0.000  0.000  0.000  0.000  0.000  0.000  0.000  0.007
   27  0.000  0.000  0.000  0.000  0.000  0.000  0.000  0.000  0.000  0.001
   28  0.000  0.001  0.000  0.001  0.000  0.001  0.000  0.001  0.008  0.011
   29  0.026  0.001  0.001  0.001  0.002  0.006  0.001  0.006  0.000  0.044
   30  0.001  0.000  0.000  0.000  0.000  0.000  0.000  0.000  0.000  0.002
   31  0.026  0.001  0.001  0.001  0.002  0.006  0.001  0.006  0.000  0.044
   32  0.000  0.001  0.000  0.001  0.000  0.001  0.000  0.001  0.008  0.011
   33  0.001  0.000  0.000  0.000  0.000  0.000  0.000  0.000  0.000  0.002
   34  0.001  0.000  0.000  0.000  0.000  0.000  0.000  0.000  0.000  0.002
   35  0.001  0.000  0.000  0.000  0.000  0.000  0.000  0.000  0.000  0.002
   36  0.000  0.000  0.000  0.000  0.000  0.000  0.000  0.000  0.000  0.001
   37  0.000  0.086  0.000  0.086  0.000  0.000  0.000  0.000  0.000  0.171
   38  0.000  0.157  0.000  0.157  0.000  0.000  0.000  0.000  0.000  0.313
tot    0.082  0.250  0.003  0.250  0.004  0.016  0.002  0.016  0.019  0.642
 
band     6 # energy   -8.12171585 # occ.  2.00000000
 
ion      s     py     pz     px    dxy    dyz    dz2    dxz  x2-y2    tot
    1  0.000  0.000  0.000  0.000  0.000  0.000  0.000  0.000  0.000  0.000
    2  0.000  0.000  0.000  0.000  0.000  0.000  0.000  0.000  0.000  0.000
    3  0.000  0.000  0.000  0.000  0.000  0.000  0.000  0.000  0.000  0.000
    4  0.000  0.000  0.000  0.000  0.000  0.000  0.000  0.000  0.000  0.000
    5  0.000  0.000  0.000  0.000  0.000  0.000  0.000  0.000  0.000  0.000
    6  0.000  0.000  0.000  0.000  0.000  0.000  0.000  0.000  0.000  0.000
    7  0.000  0.000  0.000  0.000  0.000  0.000  0.000  0.000  0.000  0.000
    8  0.000  0.000  0.000  0.000  0.000  0.000  0.000  0.000  0.000  0.000
    9  0.000  0.000  0.000  0.000  0.000  0.000  0.000  0.000  0.000  0.000
   10  0.002  0.000  0.000  0.000  0.000  0.000  0.000  0.000  0.000  0.002
   11  0.000  0.000  0.000  0.000  0.000  0.000  0.000  0.000  0.000  0.000
   12  0.000  0.000  0.000  0.000  0.000  0.000  0.000  0.000  0.000  0.001
   13  0.000  0.000  0.000  0.000  0.000  0.000  0.000  0.000  0.000  0.000
   14  0.002  0.000  0.000  0.000  0.000  0.000  0.000  0.000  0.000  0.002
   15  0.000  0.000  0.000  0.000  0.000  0.000  0.000  0.000  0.000  0.001
   16  0.000  0.000  0.000  0.000  0.000  0.000  0.000  0.000  0.000  0.001
   17  0.000  0.000  0.000  0.000  0.000  0.000  0.000  0.000  0.000  0.001
   18  0.000  0.000  0.000  0.000  0.000  0.000  0.000  0.000  0.000  0.000
   19  0.000  0.001  0.000  0.001  0.000  0.000  0.000  0.000  0.000  0.002
   20  0.002  0.001  0.000  0.000  0.000  0.000  0.000  0.000  0.000  0.003
   21  0.002  0.001  0.000  0.000  0.000  0.000  0.000  0.000  0.000  0.003
   22  0.002  0.000  0.000  0.001  0.000  0.000  0.000  0.000  0.000  0.003
   23  0.006  0.000  0.000  0.000  0.000  0.000  0.000  0.000  0.000  0.007
   24  0.000  0.000  0.000  0.000  0.000  0.000  0.000  0.000  0.000  0.001
   25  0.002  0.000  0.000  0.001  0.000  0.000  0.000  0.000  0.000  0.003
   26  0.000  0.000  0.000  0.000  0.000  0.000  0.000  0.000  0.000  0.001
   27  0.006  0.000  0.000  0.000  0.000  0.000  0.000  0.000  0.000  0.007
   28  0.026  0.001  0.001  0.001  0.002  0.006  0.001  0.006  0.000  0.044
   29  0.000  0.001  0.000  0.001  0.000  0.001  0.000  0.001  0.008  0.011
   30  0.001  0.000  0.000  0.000  0.000  0.000  0.000  0.000  0.000  0.002
   31  0.000  0.001  0.000  0.001  0.000  0.001  0.000  0.001  0.008  0.011
   32  0.026  0.001  0.001  0.001  0.002  0.006  0.001  0.006  0.000  0.044
   33  0.001  0.000  0.000  0.000  0.000  0.000  0.000  0.000  0.000  0.002
   34  0.001  0.000  0.000  0.000  0.000  0.000  0.000  0.000  0.000  0.002
   35  0.001  0.000  0.000  0.000  0.000  0.000  0.000  0.000  0.000  0.002
   36  0.000  0.000  0.000  0.000  0.000  0.000  0.000  0.000  0.000  0.001
   37  0.000  0.086  0.000  0.086  0.000  0.000  0.000  0.000  0.000  0.171
   38  0.000  0.157  0.000  0.157  0.000  0.000  0.000  0.000  0.000  0.313
tot    0.082  0.250  0.003  0.250  0.004  0.016  0.002  0.016  0.019  0.642
 
band     7 # energy   -8.06528638 # occ.  2.00000000
 
ion      s     py     pz     px    dxy    dyz    dz2    dxz  x2-y2    tot
    1  0.014  0.000  0.001  0.000  0.000  0.000  0.000  0.000  0.000  0.015
    2  0.010  0.000  0.000  0.000  0.000  0.000  0.000  0.000  0.000  0.011
    3  0.010  0.000  0.000  0.000  0.000  0.000  0.000  0.000  0.000  0.011
    4  0.010  0.000  0.000  0.000  0.000  0.000  0.000  0.000  0.000  0.011
    5  0.007  0.000  0.000  0.000  0.000  0.000  0.001  0.000  0.000  0.008
    6  0.007  0.000  0.000  0.000  0.000  0.000  0.001  0.000  0.000  0.008
    7  0.010  0.000  0.000  0.000  0.000  0.000  0.000  0.000  0.000  0.011
    8  0.007  0.000  0.000  0.000  0.000  0.000  0.001  0.000  0.000  0.008
    9  0.007  0.000  0.000  0.000  0.000  0.000  0.001  0.000  0.000  0.008
   10  0.006  0.000  0.002  0.000  0.000  0.000  0.000  0.000  0.000  0.009
   11  0.006  0.000  0.002  0.000  0.000  0.000  0.000  0.000  0.000  0.009
   12  0.001  0.000  0.003  0.000  0.000  0.000  0.000  0.000  0.000  0.004
   13  0.006  0.000  0.002  0.000  0.000  0.000  0.000  0.000  0.000  0.009
   14  0.006  0.000  0.002  0.000  0.000  0.000  0.000  0.000  0.000  0.009
   15  0.001  0.000  0.003  0.000  0.000  0.000  0.000  0.000  0.000  0.004
   16  0.001  0.000  0.003  0.000  0.000  0.000  0.000  0.000  0.000  0.004
   17  0.001  0.000  0.003  0.000  0.000  0.000  0.000  0.000  0.000  0.004
   18  0.000  0.000  0.003  0.000  0.000  0.000  0.001  0.000  0.000  0.004
   19  0.001  0.000  0.000  0.000  0.000  0.000  0.006  0.000  0.000  0.007
   20  0.006  0.000  0.001  0.001  0.000  0.000  0.001  0.000  0.001  0.009
   21  0.006  0.000  0.001  0.001  0.000  0.000  0.001  0.000  0.001  0.009
   22  0.006  0.001  0.001  0.000  0.000  0.000  0.001  0.000  0.001  0.009
   23  0.020  0.000  0.001  0.000  0.000  0.000  0.001  0.000  0.000  0.023
   24  0.020  0.000  0.001  0.000  0.000  0.000  0.001  0.000  0.000  0.023
   25  0.006  0.001  0.001  0.000  0.000  0.000  0.001  0.000  0.001  0.009
   26  0.020  0.000  0.001  0.000  0.000  0.000  0.001  0.000  0.000  0.023
   27  0.020  0.000  0.001  0.000  0.000  0.000  0.001  0.000  0.000  0.023
   28  0.000  0.003  0.001  0.003  0.005  0.000  0.001  0.000  0.000  0.014
   29  0.000  0.003  0.001  0.003  0.005  0.000  0.001  0.000  0.000  0.014
   30  0.012  0.000  0.001  0.000  0.000  0.000  0.000  0.000  0.001  0.014
   31  0.000  0.003  0.001  0.003  0.005  0.000  0.001  0.000  0.000  0.014
   32  0.000  0.003  0.001  0.003  0.005  0.000  0.001  0.000  0.000  0.014
   33  0.012  0.000  0.001  0.000  0.000  0.000  0.000  0.000  0.001  0.014
   34  0.012  0.000  0.001  0.000  0.000  0.000  0.000  0.000  0.001  0.014
   35  0.012  0.000  0.001  0.000  0.000  0.000  0.000  0.000  0.001  0.014
   36  0.023  0.000  0.002  0.000  0.000  0.000  0.000  0.000  0.000  0.025
   37  0.002  0.000  0.081  0.000  0.000  0.000  0.000  0.000  0.000  0.083
   38  0.013  0.000  0.137  0.000  0.000  0.000  0.000  0.000  0.000  0.150
tot    0.303  0.016  0.256  0.016  0.021  0.003  0.025  0.003  0.006  0.647
 
band     8 # energy   -7.58377722 # occ.  2.00000000
 
ion      s     py     pz     px    dxy    dyz    dz2    dxz  x2-y2    tot
    1  0.000  0.000  0.000  0.000  0.000  0.000  0.000  0.000  0.001  0.001
    2  0.011  0.000  0.002  0.001  0.000  0.000  0.000  0.001  0.000  0.015
    3  0.011  0.000  0.002  0.001  0.000  0.000  0.000  0.001  0.000  0.015
    4  0.011  0.001  0.002  0.000  0.000  0.001  0.000  0.000  0.000  0.015
    5  0.000  0.001  0.000  0.001  0.000  0.001  0.000  0.001  0.000  0.005
    6  0.000  0.001  0.000  0.001  0.000  0.001  0.000  0.001  0.000  0.005
    7  0.011  0.001  0.002  0.000  0.000  0.001  0.000  0.000  0.000  0.015
    8  0.000  0.001  0.000  0.001  0.000  0.001  0.000  0.001  0.000  0.005
    9  0.000  0.001  0.000  0.001  0.000  0.001  0.000  0.001  0.000  0.005
   10  0.000  0.003  0.000  0.003  0.000  0.000  0.000  0.000  0.003  0.009
   11  0.000  0.003  0.000  0.003  0.000  0.000  0.000  0.000  0.003  0.009
   12  0.041  0.003  0.000  0.000  0.000  0.000  0.000  0.000  0.001  0.045
   13  0.000  0.003  0.000  0.003  0.000  0.000  0.000  0.000  0.003  0.009
   14  0.000  0.003  0.000  0.003  0.000  0.000  0.000  0.000  0.003  0.009
   15  0.041  0.003  0.000  0.000  0.000  0.000  0.000  0.000  0.001  0.045
   16  0.041  0.000  0.000  0.003  0.000  0.000  0.000  0.000  0.001  0.045
   17  0.041  0.000  0.000  0.003  0.000  0.000  0.000  0.000  0.001  0.045
   18  0.000  0.000  0.000  0.000  0.000  0.000  0.000  0.000  0.011  0.011
   19  0.000  0.000  0.000  0.000  0.000  0.000  0.000  0.000  0.009  0.009
   20  0.038  0.000  0.000  0.003  0.000  0.000  0.000  0.000  0.001  0.042
   21  0.038  0.000  0.000  0.003  0.000  0.000  0.000  0.000  0.001  0.042
   22  0.038  0.003  0.000  0.000  0.000  0.000  0.000  0.000  0.001  0.042
   23  0.000  0.003  0.000  0.003  0.000  0.000  0.000  0.000  0.002  0.009
   24  0.000  0.003  0.000  0.003  0.000  0.000  0.000  0.000  0.002  0.009
   25  0.038  0.003  0.000  0.000  0.000  0.000  0.000  0.000  0.001  0.042
   26  0.000  0.003  0.000  0.003  0.000  0.000  0.000  0.000  0.002  0.009
   27  0.000  0.003  0.000  0.003  0.000  0.000  0.000  0.000  0.002  0.009
   28  0.000  0.001  0.000  0.001  0.000  0.001  0.000  0.001  0.000  0.005
   29  0.000  0.001  0.000  0.001  0.000  0.001  0.000  0.001  0.000  0.005
   30  0.010  0.001  0.001  0.000  0.000  0.001  0.000  0.000  0.000  0.013
   31  0.000  0.001  0.000  0.001  0.000  0.001  0.000  0.001  0.000  0.005
   32  0.000  0.001  0.000  0.001  0.000  0.001  0.000  0.001  0.000  0.005
   33  0.010  0.001  0.001  0.000  0.000  0.001  0.000  0.000  0.000  0.013
   34  0.010  0.000  0.001  0.001  0.000  0.000  0.000  0.001  0.000  0.013
   35  0.010  0.000  0.001  0.001  0.000  0.000  0.000  0.001  0.000  0.013
   36  0.000  0.000  0.000  0.000  0.000  0.000  0.000  0.000  0.001  0.001
   37  0.000  0.000  0.000  0.000  0.000  0.000  0.000  0.000  0.000  0.000
   38  0.000  0.000  0.000  0.000  0.000  0.000  0.000  0.000  0.000  0.000
tot    0.395  0.047  0.014  0.047  0.000  0.019  0.004  0.019  0.051  0.595
 
band     9 # energy   -7.54371289 # occ.  2.00000000
 
ion      s     py     pz     px    dxy    dyz    dz2    dxz  x2-y2    tot
    1  0.000  0.001  0.000  0.001  0.000  0.002  0.000  0.002  0.000  0.007
    2  0.004  0.001  0.001  0.000  0.000  0.002  0.000  0.000  0.000  0.009
    3  0.004  0.001  0.001  0.000  0.000  0.002  0.000  0.000  0.000  0.009
    4  0.004  0.000  0.001  0.001  0.000  0.000  0.000  0.002  0.000  0.009
    5  0.000  0.000  0.000  0.000  0.000  0.000  0.000  0.000  0.001  0.003
    6  0.015  0.000  0.002  0.000  0.000  0.000  0.000  0.000  0.000  0.020
    7  0.004  0.000  0.001  0.001  0.000  0.000  0.000  0.002  0.000  0.009
    8  0.015  0.000  0.002  0.000  0.000  0.000  0.000  0.000  0.000  0.020
    9  0.000  0.000  0.000  0.000  0.000  0.000  0.000  0.000  0.001  0.003
   10  0.000  0.001  0.000  0.001  0.000  0.000  0.000  0.000  0.009  0.011
   11  0.055  0.001  0.000  0.001  0.000  0.000  0.000  0.000  0.000  0.058
   12  0.014  0.001  0.000  0.004  0.000  0.000  0.000  0.000  0.002  0.021
   13  0.055  0.001  0.000  0.001  0.000  0.000  0.000  0.000  0.000  0.058
   14  0.000  0.001  0.000  0.001  0.000  0.000  0.000  0.000  0.009  0.011
   15  0.014  0.001  0.000  0.004  0.000  0.000  0.000  0.000  0.002  0.021
   16  0.014  0.004  0.000  0.001  0.000  0.000  0.000  0.000  0.002  0.021
   17  0.014  0.004  0.000  0.001  0.000  0.000  0.000  0.000  0.002  0.021
   18  0.000  0.004  0.000  0.004  0.000  0.000  0.000  0.000  0.000  0.008
   19  0.000  0.003  0.000  0.003  0.000  0.001  0.000  0.001  0.000  0.009
   20  0.011  0.003  0.000  0.001  0.000  0.001  0.000  0.000  0.002  0.018
   21  0.011  0.003  0.000  0.001  0.000  0.001  0.000  0.000  0.002  0.018
   22  0.011  0.001  0.000  0.003  0.000  0.000  0.000  0.001  0.002  0.018
   23  0.000  0.001  0.000  0.001  0.000  0.000  0.000  0.000  0.006  0.008
   24  0.043  0.001  0.001  0.001  0.000  0.000  0.000  0.000  0.000  0.046
   25  0.011  0.001  0.000  0.003  0.000  0.000  0.000  0.001  0.002  0.018
   26  0.043  0.001  0.001  0.001  0.000  0.000  0.000  0.000  0.000  0.046
   27  0.000  0.001  0.000  0.001  0.000  0.000  0.000  0.000  0.006  0.008
   28  0.000  0.000  0.000  0.000  0.000  0.001  0.000  0.001  0.000  0.002
   29  0.003  0.001  0.003  0.001  0.000  0.000  0.000  0.000  0.000  0.007
   30  0.002  0.000  0.000  0.001  0.000  0.000  0.000  0.001  0.000  0.005
   31  0.003  0.001  0.003  0.001  0.000  0.000  0.000  0.000  0.000  0.007
   32  0.000  0.000  0.000  0.000  0.000  0.001  0.000  0.001  0.000  0.002
   33  0.002  0.000  0.000  0.001  0.000  0.000  0.000  0.001  0.000  0.005
   34  0.002  0.001  0.000  0.000  0.000  0.001  0.000  0.000  0.000  0.005
   35  0.002  0.001  0.000  0.000  0.000  0.001  0.000  0.000  0.000  0.005
   36  0.000  0.001  0.000  0.001  0.000  0.001  0.000  0.001  0.000  0.004
   37  0.000  0.007  0.000  0.007  0.000  0.000  0.000  0.000  0.000  0.015
   38  0.000  0.020  0.000  0.020  0.000  0.000  0.000  0.000  0.000  0.041
tot    0.356  0.070  0.016  0.070  0.000  0.020  0.003  0.020  0.049  0.606
 
band    10 # energy   -7.54371205 # occ.  2.00000000
 
ion      s     py     pz     px    dxy    dyz    dz2    dxz  x2-y2    tot
    1  0.000  0.001  0.000  0.001  0.000  0.002  0.000  0.002  0.000  0.007
    2  0.004  0.001  0.001  0.000  0.000  0.002  0.000  0.000  0.000  0.009
    3  0.004  0.001  0.001  0.000  0.000  0.002  0.000  0.000  0.000  0.009
    4  0.004  0.000  0.001  0.001  0.000  0.000  0.000  0.002  0.000  0.009
    5  0.015  0.000  0.002  0.000  0.000  0.000  0.000  0.000  0.000  0.020
    6  0.000  0.000  0.000  0.000  0.000  0.000  0.000  0.000  0.001  0.003
    7  0.004  0.000  0.001  0.001  0.000  0.000  0.000  0.002  0.000  0.009
    8  0.000  0.000  0.000  0.000  0.000  0.000  0.000  0.000  0.001  0.003
    9  0.015  0.000  0.002  0.000  0.000  0.000  0.000  0.000  0.000  0.020
   10  0.055  0.001  0.000  0.001  0.000  0.000  0.000  0.000  0.000  0.058
   11  0.000  0.001  0.000  0.001  0.000  0.000  0.000  0.000  0.009  0.011
   12  0.014  0.001  0.000  0.004  0.000  0.000  0.000  0.000  0.002  0.021
   13  0.000  0.001  0.000  0.001  0.000  0.000  0.000  0.000  0.009  0.011
   14  0.055  0.001  0.000  0.001  0.000  0.000  0.000  0.000  0.000  0.058
   15  0.014  0.001  0.000  0.004  0.000  0.000  0.000  0.000  0.002  0.021
   16  0.014  0.004  0.000  0.001  0.000  0.000  0.000  0.000  0.002  0.021
   17  0.014  0.004  0.000  0.001  0.000  0.000  0.000  0.000  0.002  0.021
   18  0.000  0.004  0.000  0.004  0.000  0.000  0.000  0.000  0.000  0.008
   19  0.000  0.003  0.000  0.003  0.000  0.001  0.000  0.001  0.000  0.009
   20  0.011  0.003  0.000  0.001  0.000  0.001  0.000  0.000  0.002  0.018
   21  0.011  0.003  0.000  0.001  0.000  0.001  0.000  0.000  0.002  0.018
   22  0.011  0.001  0.000  0.003  0.000  0.000  0.000  0.001  0.002  0.018
   23  0.043  0.001  0.001  0.001  0.000  0.000  0.000  0.000  0.000  0.046
   24  0.000  0.001  0.000  0.001  0.000  0.000  0.000  0.000  0.006  0.008