Cu(100) coverage-dependent binding (RPBE
            1
     7.668573    0.000000    0.000000
     0.000000    7.668573    0.000000
     0.000000    0.000000   29.422500
   Cu   C    O 
    36     1     1
Direct configuration=     1
   0.16666667  0.16666667  0.40785113
   0.50000000  0.16666667  0.40785113
   0.83333333  0.16666667  0.40785113
   0.16666667  0.50000000  0.40785113
   0.50000000  0.50000000  0.40785113
   0.83333333  0.50000000  0.40785113
   0.16666667  0.83333333  0.40785113
   0.50000000  0.83333333  0.40785113
   0.83333333  0.83333333  0.40785113
   0.00000000  0.00000000  0.46928371
   0.33333333  0.00000000  0.46928371
   0.66666667  0.00000000  0.46928371
   0.00000000  0.33333333  0.46928371
   0.33333333  0.33333333  0.46928371
   0.66666667  0.33333333  0.46928371
   0.00000000  0.66666667  0.46928371
   0.33333333  0.66666667  0.46928371
   0.66666667  0.66666667  0.46928371
   0.16666667  0.16666667  0.53071629
   0.50000000  0.16666667  0.53071629
   0.83333333  0.16666667  0.53071629
   0.16666667  0.50000000  0.53071629
   0.50000000  0.50000000  0.53071629
   0.83333333  0.50000000  0.53071629
   0.16666667  0.83333333  0.53071629
   0.50000000  0.83333333  0.53071629
   0.83333333  0.83333333  0.53071629
   0.00000000  0.00000000  0.59214887
   0.33333333  0.00000000  0.59214887
   0.66666667  0.00000000  0.59214887
   0.00000000  0.33333333  0.59214887
   0.33333333  0.33333333  0.59214887
   0.66666667  0.33333333  0.59214887
   0.00000000  0.66666667  0.59214887
   0.33333333  0.66666667  0.59214887
   0.66666667  0.66666667  0.59214887
   0.16666667  0.16666667  0.64313026
   0.16666667  0.16666667  0.68255587
Direct configuration=     2
   0.16666667  0.16666667  0.40785113
   0.50000000  0.16666667  0.40785113
   0.83333333  0.16666667  0.40785113
   0.16666667  0.50000000  0.40785113
   0.50000000  0.50000000  0.40785113
   0.83333333  0.50000000  0.40785113
   0.16666667  0.83333333  0.40785113
   0.50000000  0.83333333  0.40785113
   0.83333333  0.83333333  0.40785113
   0.00000000  0.00000000  0.46928371
   0.33333333  0.00000000  0.46928371
   0.66666667  0.00000000  0.46928371
   0.00000000  0.33333333  0.46928371
   0.33333333  0.33333333  0.46928371
   0.66666667  0.33333333  0.46928371
   0.00000000  0.66666667  0.46928371
   0.33333333  0.66666667  0.46928371
   0.66666667  0.66666667  0.46928371
   0.16666667  0.16666667  0.53009618
   0.49966339  0.16666667  0.53101625
   0.83366994  0.16666667  0.53101625
   0.16666667  0.49966339  0.53101625
   0.49976207  0.49976207  0.53109970
   0.83357127  0.49976207  0.53109970
   0.16666667  0.83366994  0.53101625
   0.49976207  0.83357127  0.53109970
   0.83357127  0.83357127  0.53109970
   0.00044853  0.00044853  0.59286584
   0.33288480  0.00044853  0.59286584
   0.66666667  0.00005324  0.59234545
   0.00044853  0.33288480  0.59286584
   0.33288480  0.33288480  0.59286584
   0.66666667  0.33328010  0.59234545
   0.00005324  0.66666667  0.59234545
   0.33328010  0.66666667  0.59234545
   0.66666667  0.66666667  0.59242780
   0.16666667  0.16666667  0.63866483
   0.16666667  0.16666667  0.68616005
Direct configuration=     3
   0.16666667  0.16666667  0.40785113
   0.50000000  0.16666667  0.40785113
   0.83333333  0.16666667  0.40785113
   0.16666667  0.50000000  0.40785113
   0.50000000  0.50000000  0.40785113
   0.83333333  0.50000000  0.40785113
   0.16666667  0.83333333  0.40785113
   0.50000000  0.83333333  0.40785113
   0.83333333  0.83333333  0.40785113
   0.00000000  0.00000000  0.46928371
   0.33333333  0.00000000  0.46928371
   0.66666667  0.00000000  0.46928371
   0.00000000  0.33333333  0.46928371
   0.33333333  0.33333333  0.46928371
   0.66666667  0.33333333  0.46928371
   0.00000000  0.66666667  0.46928371
   0.33333333  0.66666667  0.46928371
   0.66666667  0.66666667  0.46928371
   0.16666667  0.16666667  0.53062272
   0.49994921  0.16666667  0.53076155
   0.83338412  0.16666667  0.53076155
   0.16666667  0.49994921  0.53076155
   0.49996410  0.49996410  0.53077414
   0.83336923  0.49996410  0.53077414
   0.16666667  0.83338412  0.53076155
   0.49996410  0.83336923  0.53077414
   0.83336923  0.83336923  0.53077414
   0.00006768  0.00006768  0.59225705
   0.33326565  0.00006768  0.59225705
   0.66666667  0.00000803  0.59217853
   0.00006768  0.33326565  0.59225705
   0.33326565  0.33326565  0.59225705
   0.66666667  0.33332530  0.59217853
   0.00000803  0.66666667  0.59217853
   0.33332530  0.66666667  0.59217853
   0.66666667  0.66666667  0.59219095
   0.16666667  0.16666667  0.64245647
   0.16666667  0.16666667  0.68309970
Direct configuration=     4
   0.16666667  0.16666667  0.40785113
   0.50000000  0.16666667  0.40785113
   0.83333333  0.16666667  0.40785113
   0.16666667  0.50000000  0.40785113
   0.50000000  0.50000000  0.40785113
   0.83333333  0.50000000  0.40785113
   0.16666667  0.83333333  0.40785113
   0.50000000  0.83333333  0.40785113
   0.83333333  0.83333333  0.40785113
   0.00000000  0.00000000  0.46928371
   0.33333333  0.00000000  0.46928371
   0.66666667  0.00000000  0.46928371
   0.00000000  0.33333333  0.46928371
   0.33333333  0.33333333  0.46928371
   0.66666667  0.33333333  0.46928371
   0.00000000  0.66666667  0.46928371
   0.33333333  0.66666667  0.46928371
   0.66666667  0.66666667  0.46928371
   0.16666667  0.16666667  0.53063043
   0.49995339  0.16666667  0.53075782
   0.83337994  0.16666667  0.53075782
   0.16666667  0.49995339  0.53075782
   0.49996706  0.49996706  0.53076937
   0.83336628  0.49996706  0.53076937
   0.16666667  0.83337994  0.53075782
   0.49996706  0.83336628  0.53076937
   0.83336628  0.83336628  0.53076937
   0.00006210  0.00006210  0.59224814
   0.33327123  0.00006210  0.59224814
   0.66666667  0.00000737  0.59217608
   0.00006210  0.33327123  0.59224814
   0.33327123  0.33327123  0.59224814
   0.66666667  0.33332596  0.59217608
   0.00000737  0.66666667  0.59217608
   0.33332596  0.66666667  0.59217608
   0.66666667  0.66666667  0.59218749
   0.16666667  0.16666667  0.64251199
   0.16666667  0.16666667  0.68305489
Direct configuration=     5
   0.16666667  0.16666667  0.40785113
   0.50000000  0.16666667  0.40785113
   0.83333333  0.16666667  0.40785113
   0.16666667  0.50000000  0.40785113
   0.50000000  0.50000000  0.40785113
   0.83333333  0.50000000  0.40785113
   0.16666667  0.83333333  0.40785113
   0.50000000  0.83333333  0.40785113
   0.83333333  0.83333333  0.40785113
   0.00000000  0.00000000  0.46928371
   0.33333333  0.00000000  0.46928371
   0.66666667  0.00000000  0.46928371
   0.00000000  0.33333333  0.46928371
   0.33333333  0.33333333  0.46928371
   0.66666667  0.33333333  0.46928371
   0.00000000  0.66666667  0.46928371
   0.33333333  0.66666667  0.46928371
   0.66666667  0.66666667  0.46928371
   0.16666667  0.16666667  0.53005730
   0.49964285  0.16666667  0.53104172
   0.83369048  0.16666667  0.53104172
   0.16666667  0.49964285  0.53104172
   0.49973831  0.49973831  0.53113174
   0.83359502  0.49973831  0.53113174
   0.16666667  0.83369048  0.53104172
   0.49973831  0.83359502  0.53113174
   0.83359502  0.83359502  0.53113174
   0.00059019  0.00059019  0.59297230
   0.33274315  0.00059019  0.59297230
   0.66666667  0.00005991  0.59236055
   0.00059019  0.33274315  0.59297230
   0.33274315  0.33274315  0.59297230
   0.66666667  0.33327342  0.59236055
   0.00005991  0.66666667  0.59236055
   0.33327342  0.66666667  0.59236055
   0.66666667  0.66666667  0.59245021
   0.16666667  0.16666667  0.64197992
   0.16666667  0.16666667  0.68258621
Direct configuration=     6
   0.16666667  0.16666667  0.40785113
   0.50000000  0.16666667  0.40785113
   0.83333333  0.16666667  0.40785113
   0.16666667  0.50000000  0.40785113
   0.50000000  0.50000000  0.40785113
   0.83333333  0.50000000  0.40785113
   0.16666667  0.83333333  0.40785113
   0.50000000  0.83333333  0.40785113
   0.83333333  0.83333333  0.40785113
   0.00000000  0.00000000  0.46928371
   0.33333333  0.00000000  0.46928371
   0.66666667  0.00000000  0.46928371
   0.00000000  0.33333333  0.46928371
   0.33333333  0.33333333  0.46928371
   0.66666667  0.33333333  0.46928371
   0.00000000  0.66666667  0.46928371
   0.33333333  0.66666667  0.46928371
   0.66666667  0.66666667  0.46928371
   0.16666667  0.16666667  0.52833792
   0.49871123  0.16666667  0.53189342
   0.83462211  0.16666667  0.53189342
   0.16666667  0.49871123  0.53189342
   0.49905207  0.49905207  0.53221884
   0.83428126  0.49905207  0.53221884
   0.16666667  0.83462211  0.53189342
   0.49905207  0.83428126  0.53221884
   0.83428126  0.83428126  0.53221884
   0.00217443  0.00217443  0.59514481
   0.33115890  0.00217443  0.59514481
   0.66666667  0.00021754  0.59291395
   0.00217443  0.33115890  0.59514481
   0.33115890  0.33115890  0.59514481
   0.66666667  0.33311579  0.59291395
   0.00021754  0.66666667  0.59291395
   0.33311579  0.66666667  0.59291395
   0.66666667  0.66666667  0.59323839
   0.16666667  0.16666667  0.64038371
   0.16666667  0.16666667  0.68118016
Direct configuration=     7
   0.16666667  0.16666667  0.40785113
   0.50000000  0.16666667  0.40785113
   0.83333333  0.16666667  0.40785113
   0.16666667  0.50000000  0.40785113
   0.50000000  0.50000000  0.40785113
   0.83333333  0.50000000  0.40785113
   0.16666667  0.83333333  0.40785113
   0.50000000  0.83333333  0.40785113
   0.83333333  0.83333333  0.40785113
   0.00000000  0.00000000  0.46928371
   0.33333333  0.00000000  0.46928371
   0.66666667  0.00000000  0.46928371
   0.00000000  0.33333333  0.46928371
   0.33333333  0.33333333  0.46928371
   0.66666667  0.33333333  0.46928371
   0.00000000  0.66666667  0.46928371
   0.33333333  0.66666667  0.46928371
   0.66666667  0.66666667  0.46928371
   0.16666667  0.16666667  0.52489916
   0.49684798  0.16666667  0.53359681
   0.83648536  0.16666667  0.53359681
   0.16666667  0.49684798  0.53359681
   0.49767960  0.49767960  0.53439305
   0.83565374  0.49767960  0.53439305
   0.16666667  0.83648536  0.53359681
   0.49767960  0.83565374  0.53439305
   0.83565374  0.83565374  0.53439305
   0.00534293  0.00534293  0.59948982
   0.32799040  0.00534293  0.59948982
   0.66666667  0.00053280  0.59402075
   0.00534293  0.32799040  0.59948982
   0.32799040  0.32799040  0.59948982
   0.66666667  0.33280053  0.59402075
   0.00053280  0.66666667  0.59402075
   0.33280053  0.66666667  0.59402075
   0.66666667  0.66666667  0.59481475
   0.16666667  0.16666667  0.63719128
   0.16666667  0.16666667  0.67836807
Direct configuration=     8
   0.16666667  0.16666667  0.40785113
   0.50000000  0.16666667  0.40785113
   0.83333333  0.16666667  0.40785113
   0.16666667  0.50000000  0.40785113
   0.50000000  0.50000000  0.40785113
   0.83333333  0.50000000  0.40785113
   0.16666667  0.83333333  0.40785113
   0.50000000  0.83333333  0.40785113
   0.83333333  0.83333333  0.40785113
   0.00000000  0.00000000  0.46928371
   0.33333333  0.00000000  0.46928371
   0.66666667  0.00000000  0.46928371
   0.00000000  0.33333333  0.46928371
   0.33333333  0.33333333  0.46928371
   0.66666667  0.33333333  0.46928371
   0.00000000  0.66666667  0.46928371
   0.33333333  0.66666667  0.46928371
   0.66666667  0.66666667  0.46928371
   0.16666667  0.16666667  0.52739612
   0.49820092  0.16666667  0.53235994
   0.83513241  0.16666667  0.53235994
   0.16666667  0.49820092  0.53235994
   0.49867618  0.49867618  0.53281431
   0.83465715  0.49867618  0.53281431
   0.16666667  0.83513241  0.53235994
   0.49867618  0.83465715  0.53281431
   0.83465715  0.83465715  0.53281431
   0.00304222  0.00304222  0.59633482
   0.33029111  0.00304222  0.59633482
   0.66666667  0.00030389  0.59321708
   0.00304222  0.33029111  0.59633482
   0.33029111  0.33029111  0.59633482
   0.66666667  0.33302945  0.59321708
   0.00030389  0.66666667  0.59321708
   0.33302945  0.66666667  0.59321708
   0.66666667  0.66666667  0.59367012
   0.16666667  0.16666667  0.63950937
   0.16666667  0.16666667  0.68040999
Direct configuration=     9
   0.16666667  0.16666667  0.40785113
   0.50000000  0.16666667  0.40785113
   0.83333333  0.16666667  0.40785113
   0.16666667  0.50000000  0.40785113
   0.50000000  0.50000000  0.40785113
   0.83333333  0.50000000  0.40785113
   0.16666667  0.83333333  0.40785113
   0.50000000  0.83333333  0.40785113
   0.83333333  0.83333333  0.40785113
   0.00000000  0.00000000  0.46928371
   0.33333333  0.00000000  0.46928371
   0.66666667  0.00000000  0.46928371
   0.00000000  0.33333333  0.46928371
   0.33333333  0.33333333  0.46928371
   0.66666667  0.33333333  0.46928371
   0.00000000  0.66666667  0.46928371
   0.33333333  0.66666667  0.46928371
   0.66666667  0.66666667  0.46928371
   0.16666667  0.16666667  0.52848741
   0.49772932  0.16666667  0.53266354
   0.83560401  0.16666667  0.53266354
   0.16666667  0.49772932  0.53266354
   0.49843019  0.49843019  0.53298615
   0.83490314  0.49843019  0.53298615
   0.16666667  0.83560401  0.53266354
   0.49843019  0.83490314  0.53298615
   0.83490314  0.83490314  0.53298615
   0.00267718  0.00267718  0.59663507
   0.33065615  0.00267718  0.59663507
   0.66666667  0.00062144  0.59373254
   0.00267718  0.33065615  0.59663507
   0.33065615  0.33065615  0.59663507
   0.66666667  0.33271189  0.59373254
   0.00062144  0.66666667  0.59373254
   0.33271189  0.66666667  0.59373254
   0.66666667  0.66666667  0.59414972
   0.16666667  0.16666667  0.63983177
   0.16666667  0.16666667  0.67949529
Direct configuration=    10
   0.16666667  0.16666667  0.40785113
   0.50000000  0.16666667  0.40785113
   0.83333333  0.16666667  0.40785113
   0.16666667  0.50000000  0.40785113
   0.50000000  0.50000000  0.40785113
   0.83333333  0.50000000  0.40785113
   0.16666667  0.83333333  0.40785113
   0.50000000  0.83333333  0.40785113
   0.83333333  0.83333333  0.40785113
   0.00000000  0.00000000  0.46928371
   0.33333333  0.00000000  0.46928371
   0.66666667  0.00000000  0.46928371
   0.00000000  0.33333333  0.46928371
   0.33333333  0.33333333  0.46928371
   0.66666667  0.33333333  0.46928371
   0.00000000  0.66666667  0.46928371
   0.33333333  0.66666667  0.46928371
   0.66666667  0.66666667  0.46928371
   0.16666667  0.16666667  0.52781688
   0.49801909  0.16666667  0.53247700
   0.83531424  0.16666667  0.53247700
   0.16666667  0.49801909  0.53247700
   0.49858134  0.49858134  0.53288057
   0.83475200  0.49858134  0.53288057
   0.16666667  0.83531424  0.53247700
   0.49858134  0.83475200  0.53288057
   0.83475200  0.83475200  0.53288057
   0.00290147  0.00290147  0.59645059
   0.33043186  0.00290147  0.59645059
   0.66666667  0.00042633  0.59341582
   0.00290147  0.33043186  0.59645059
   0.33043186  0.33043186  0.59645059
   0.66666667  0.33290701  0.59341582
   0.00042633  0.66666667  0.59341582
   0.33290701  0.66666667  0.59341582
   0.66666667  0.66666667  0.59385504
   0.16666667  0.16666667  0.63963368
   0.16666667  0.16666667  0.68005731
Direct configuration=    11
   0.16666667  0.16666667  0.40785113
   0.50000000  0.16666667  0.40785113
   0.83333333  0.16666667  0.40785113
   0.16666667  0.50000000  0.40785113
   0.50000000  0.50000000  0.40785113
   0.83333333  0.50000000  0.40785113
   0.16666667  0.83333333  0.40785113
   0.50000000  0.83333333  0.40785113
   0.83333333  0.83333333  0.40785113
   0.00000000  0.00000000  0.46928371
   0.33333333  0.00000000  0.46928371
   0.66666667  0.00000000  0.46928371
   0.00000000  0.33333333  0.46928371
   0.33333333  0.33333333  0.46928371
   0.66666667  0.33333333  0.46928371
   0.00000000  0.66666667  0.46928371
   0.33333333  0.66666667  0.46928371
   0.66666667  0.66666667  0.46928371
   0.16666667  0.16666667  0.52813260
   0.49789820  0.16666667  0.53255797
   0.83543513  0.16666667  0.53255797
   0.16666667  0.49789820  0.53255797
   0.49852085  0.49852085  0.53292400
   0.83481248  0.49852085  0.53292400
   0.16666667  0.83543513  0.53255797
   0.49852085  0.83481248  0.53292400
   0.83481248  0.83481248  0.53292400
   0.00278082  0.00278082  0.59652045
   0.33055251  0.00278082  0.59652045
   0.66666667  0.00051234  0.59355988
   0.00278082  0.33055251  0.59652045
   0.33055251  0.33055251  0.59652045
   0.66666667  0.33282100  0.59355988
   0.00051234  0.66666667  0.59355988
   0.33282100  0.66666667  0.59355988
   0.66666667  0.66666667  0.59398641
   0.16666667  0.16666667  0.63954633
   0.16666667  0.16666667  0.68001009
Direct configuration=    12
   0.16666667  0.16666667  0.40785113
   0.50000000  0.16666667  0.40785113
   0.83333333  0.16666667  0.40785113
   0.16666667  0.50000000  0.40785113
   0.50000000  0.50000000  0.40785113
   0.83333333  0.50000000  0.40785113
   0.16666667  0.83333333  0.40785113
   0.50000000  0.83333333  0.40785113
   0.83333333  0.83333333  0.40785113
   0.00000000  0.00000000  0.46928371
   0.33333333  0.00000000  0.46928371
   0.66666667  0.00000000  0.46928371
   0.00000000  0.33333333  0.46928371
   0.33333333  0.33333333  0.46928371
   0.66666667  0.33333333  0.46928371
   0.00000000  0.66666667  0.46928371
   0.33333333  0.66666667  0.46928371
   0.66666667  0.66666667  0.46928371
   0.16666667  0.16666667  0.52907975
   0.49753555  0.16666667  0.53280086
   0.83579779  0.16666667  0.53280086
   0.16666667  0.49753555  0.53280086
   0.49833940  0.49833940  0.53305429
   0.83499393  0.49833940  0.53305429
   0.16666667  0.83579779  0.53280086
   0.49833940  0.83499393  0.53305429
   0.83499393  0.83499393  0.53305429
   0.00241886  0.00241886  0.59673004
   0.33091447  0.00241886  0.59673004
   0.66666667  0.00077037  0.59399206
   0.00241886  0.33091447  0.59673004
   0.33091447  0.33091447  0.59673004
   0.66666667  0.33256296  0.59399206
   0.00077037  0.66666667  0.59399206
   0.33256296  0.66666667  0.59399206
   0.66666667  0.66666667  0.59438054
   0.16666667  0.16666667  0.63928428
   0.16666667  0.16666667  0.67986844
Direct configuration=    13
   0.16666667  0.16666667  0.40785113
   0.50000000  0.16666667  0.40785113
   0.83333333  0.16666667  0.40785113
   0.16666667  0.50000000  0.40785113
   0.50000000  0.50000000  0.40785113
   0.83333333  0.50000000  0.40785113
   0.16666667  0.83333333  0.40785113
   0.50000000  0.83333333  0.40785113
   0.83333333  0.83333333  0.40785113
   0.00000000  0.00000000  0.46928371
   0.33333333  0.00000000  0.46928371
   0.66666667  0.00000000  0.46928371
   0.00000000  0.33333333  0.46928371
   0.33333333  0.33333333  0.46928371
   0.66666667  0.33333333  0.46928371
   0.00000000  0.66666667  0.46928371
   0.33333333  0.66666667  0.46928371
   0.66666667  0.66666667  0.46928371
   0.16666667  0.16666667  0.53097405
   0.49681023  0.16666667  0.53328664
   0.83652310  0.16666667  0.53328664
   0.16666667  0.49681023  0.53328664
   0.49797649  0.49797649  0.53331487
   0.83535684  0.49797649  0.53331487
   0.16666667  0.83652310  0.53328664
   0.49797649  0.83535684  0.53331487
   0.83535684  0.83535684  0.53331487
   0.00169494  0.00169494  0.59714922
   0.33163840  0.00169494  0.59714922
   0.66666667  0.00128645  0.59485642
   0.00169494  0.33163840  0.59714922
   0.33163840  0.33163840  0.59714922
   0.66666667  0.33204689  0.59485642
   0.00128645  0.66666667  0.59485642
   0.33204689  0.66666667  0.59485642
   0.66666667  0.66666667  0.59516879
   0.16666667  0.16666667  0.63876019
   0.16666667  0.16666667  0.67958513
Direct configuration=    14
   0.16666667  0.16666667  0.40785113
   0.50000000  0.16666667  0.40785113
   0.83333333  0.16666667  0.40785113
   0.16666667  0.50000000  0.40785113
   0.50000000  0.50000000  0.40785113
   0.83333333  0.50000000  0.40785113
   0.16666667  0.83333333  0.40785113
   0.50000000  0.83333333  0.40785113
   0.83333333  0.83333333  0.40785113
   0.00000000  0.00000000  0.46928371
   0.33333333  0.00000000  0.46928371
   0.66666667  0.00000000  0.46928371
   0.00000000  0.33333333  0.46928371
   0.33333333  0.33333333  0.46928371
   0.66666667  0.33333333  0.46928371
   0.00000000  0.66666667  0.46928371
   0.33333333  0.66666667  0.46928371
   0.66666667  0.66666667  0.46928371
   0.16666667  0.16666667  0.53084486
   0.49685970  0.16666667  0.53325351
   0.83647364  0.16666667  0.53325351
   0.16666667  0.49685970  0.53325351
   0.49800124  0.49800124  0.53329710
   0.83533209  0.49800124  0.53329710
   0.16666667  0.83647364  0.53325351
   0.49800124  0.83533209  0.53329710
   0.83533209  0.83533209  0.53329710
   0.00174431  0.00174431  0.59712063
   0.33158903  0.00174431  0.59712063
   0.66666667  0.00125125  0.59479747
   0.00174431  0.33158903  0.59712063
   0.33158903  0.33158903  0.59712063
   0.66666667  0.33208208  0.59479747
   0.00125125  0.66666667  0.59479747
   0.33208208  0.66666667  0.59479747
   0.66666667  0.66666667  0.59511503
   0.16666667  0.16666667  0.63879593
   0.16666667  0.16666667  0.67960445
Direct configuration=    15
   0.16666667  0.16666667  0.40785113
   0.50000000  0.16666667  0.40785113
   0.83333333  0.16666667  0.40785113
   0.16666667  0.50000000  0.40785113
   0.50000000  0.50000000  0.40785113
   0.83333333  0.50000000  0.40785113
   0.16666667  0.83333333  0.40785113
   0.50000000  0.83333333  0.40785113
   0.83333333  0.83333333  0.40785113
   0.00000000  0.00000000  0.46928371
   0.33333333  0.00000000  0.46928371
   0.66666667  0.00000000  0.46928371
   0.00000000  0.33333333  0.46928371
   0.33333333  0.33333333  0.46928371
   0.66666667  0.33333333  0.46928371
   0.00000000  0.66666667  0.46928371
   0.33333333  0.66666667  0.46928371
   0.66666667  0.66666667  0.46928371
   0.16666667  0.16666667  0.53080726
   0.49700283  0.16666667  0.53326855
   0.83633050  0.16666667  0.53326855
   0.16666667  0.49700283  0.53326855
   0.49809081  0.49809081  0.53333570
   0.83524253  0.49809081  0.53333570
   0.16666667  0.83633050  0.53326855
   0.49809081  0.83524253  0.53333570
   0.83524253  0.83524253  0.53333570
   0.00166641  0.00166641  0.59715026
   0.33166693  0.00166641  0.59715026
   0.66666667  0.00119919  0.59484132
   0.00166641  0.33166693  0.59715026
   0.33166693  0.33166693  0.59715026
   0.66666667  0.33213414  0.59484132
   0.00119919  0.66666667  0.59484132
   0.33213414  0.66666667  0.59484132
   0.66666667  0.66666667  0.59514370
   0.16666667  0.16666667  0.63880428
   0.16666667  0.16666667  0.67965534
Direct configuration=    16
   0.16666667  0.16666667  0.40785113
   0.50000000  0.16666667  0.40785113
   0.83333333  0.16666667  0.40785113
   0.16666667  0.50000000  0.40785113
   0.50000000  0.50000000  0.40785113
   0.83333333  0.50000000  0.40785113
   0.16666667  0.83333333  0.40785113
   0.50000000  0.83333333  0.40785113
   0.83333333  0.83333333  0.40785113
   0.00000000  0.00000000  0.46928371
   0.33333333  0.00000000  0.46928371
   0.66666667  0.00000000  0.46928371
   0.00000000  0.33333333  0.46928371
   0.33333333  0.33333333  0.46928371
   0.66666667  0.33333333  0.46928371
   0.00000000  0.66666667  0.46928371
   0.33333333  0.66666667  0.46928371
   0.66666667  0.66666667  0.46928371
   0.16666667  0.16666667  0.53069446
   0.49743224  0.16666667  0.53331366
   0.83590109  0.16666667  0.53331366
   0.16666667  0.49743224  0.53331366
   0.49835950  0.49835950  0.53345150
   0.83497384  0.49835950  0.53345150
   0.16666667  0.83590109  0.53331366
   0.49835950  0.83497384  0.53345150
   0.83497384  0.83497384  0.53345150
   0.00143271  0.00143271  0.59723915
   0.33190062  0.00143271  0.59723915
   0.66666667  0.00104301  0.59497288
   0.00143271  0.33190062  0.59723915
   0.33190062  0.33190062  0.59723915
   0.66666667  0.33229032  0.59497288
   0.00104301  0.66666667  0.59497288
   0.33229032  0.66666667  0.59497288
   0.66666667  0.66666667  0.59522971
   0.16666667  0.16666667  0.63882932
   0.16666667  0.16666667  0.67980800
Direct configuration=    17
   0.16666667  0.16666667  0.40785113
   0.50000000  0.16666667  0.40785113
   0.83333333  0.16666667  0.40785113
   0.16666667  0.50000000  0.40785113
   0.50000000  0.50000000  0.40785113
   0.83333333  0.50000000  0.40785113
   0.16666667  0.83333333  0.40785113
   0.50000000  0.83333333  0.40785113
   0.83333333  0.83333333  0.40785113
   0.00000000  0.00000000  0.46928371
   0.33333333  0.00000000  0.46928371
   0.66666667  0.00000000  0.46928371
   0.00000000  0.33333333  0.46928371
   0.33333333  0.33333333  0.46928371
   0.66666667  0.33333333  0.46928371
   0.00000000  0.66666667  0.46928371
   0.33333333  0.66666667  0.46928371
   0.66666667  0.66666667  0.46928371
   0.16666667  0.16666667  0.53046886
   0.49829106  0.16666667  0.53340389
   0.83504227  0.16666667  0.53340389
   0.16666667  0.49829106  0.53340389
   0.49889688  0.49889688  0.53368309
   0.83443646  0.49889688  0.53368309
   0.16666667  0.83504227  0.53340389
   0.49889688  0.83443646  0.53368309
   0.83443646  0.83443646  0.53368309
   0.00096532  0.00096532  0.59741694
   0.33236801  0.00096532  0.59741694
   0.66666667  0.00073066  0.59523600
   0.00096532  0.33236801  0.59741694
   0.33236801  0.33236801  0.59741694
   0.66666667  0.33260268  0.59523600
   0.00073066  0.66666667  0.59523600
   0.33260268  0.66666667  0.59523600
   0.66666667  0.66666667  0.59540173
   0.16666667  0.16666667  0.63887939
   0.16666667  0.16666667  0.68011332
Direct configuration=    18
   0.16666667  0.16666667  0.40785113
   0.50000000  0.16666667  0.40785113
   0.83333333  0.16666667  0.40785113
   0.16666667  0.50000000  0.40785113
   0.50000000  0.50000000  0.40785113
   0.83333333  0.50000000  0.40785113
   0.16666667  0.83333333  0.40785113
   0.50000000  0.83333333  0.40785113
   0.83333333  0.83333333  0.40785113
   0.00000000  0.00000000  0.46928371
   0.33333333  0.00000000  0.46928371
   0.66666667  0.00000000  0.46928371
   0.00000000  0.33333333  0.46928371
   0.33333333  0.33333333  0.46928371
   0.66666667  0.33333333  0.46928371
   0.00000000  0.66666667  0.46928371
   0.33333333  0.66666667  0.46928371
   0.66666667  0.66666667  0.46928371
   0.16666667  0.16666667  0.53056208
   0.49793618  0.16666667  0.53336661
   0.83539716  0.16666667  0.53336661
   0.16666667  0.49793618  0.53336661
   0.49867482  0.49867482  0.53358739
   0.83465851  0.49867482  0.53358739
   0.16666667  0.83539716  0.53336661
   0.49867482  0.83465851  0.53358739
   0.83465851  0.83465851  0.53358739
   0.00115846  0.00115846  0.59734347
   0.33217488  0.00115846  0.59734347
   0.66666667  0.00085973  0.59512727
   0.00115846  0.33217488  0.59734347
   0.33217488  0.33217488  0.59734347
   0.66666667  0.33247360  0.59512727
   0.00085973  0.66666667  0.59512727
   0.33247360  0.66666667  0.59512727
   0.66666667  0.66666667  0.59533065
   0.16666667  0.16666667  0.63885870
   0.16666667  0.16666667  0.67998716
Direct configuration=    19
   0.16666667  0.16666667  0.40785113
   0.50000000  0.16666667  0.40785113
   0.83333333  0.16666667  0.40785113
   0.16666667  0.50000000  0.40785113
   0.50000000  0.50000000  0.40785113
   0.83333333  0.50000000  0.40785113
   0.16666667  0.83333333  0.40785113
   0.50000000  0.83333333  0.40785113
   0.83333333  0.83333333  0.40785113
   0.00000000  0.00000000  0.46928371
   0.33333333  0.00000000  0.46928371
   0.66666667  0.00000000  0.46928371
   0.00000000  0.33333333  0.46928371
   0.33333333  0.33333333  0.46928371
   0.66666667  0.33333333  0.46928371
   0.00000000  0.66666667  0.46928371
   0.33333333  0.66666667  0.46928371
   0.66666667  0.66666667  0.46928371
   0.16666667  0.16666667  0.53054903
   0.49798278  0.16666667  0.53337178
   0.83535056  0.16666667  0.53337178
   0.16666667  0.49798278  0.53337178
   0.49870353  0.49870353  0.53360022
   0.83462981  0.49870353  0.53360022
   0.16666667  0.83535056  0.53337178
   0.49870353  0.83462981  0.53360022
   0.83462981  0.83462981  0.53360022
   0.00113553  0.00113553  0.59735341
   0.33219781  0.00113553  0.59735341
   0.66666667  0.00084256  0.59514228
   0.00113553  0.33219781  0.59735341
   0.33219781  0.33219781  0.59735341
   0.66666667  0.33249078  0.59514228
   0.00084256  0.66666667  0.59514228
   0.33249078  0.66666667  0.59514228
   0.66666667  0.66666667  0.59534121
   0.16666667  0.16666667  0.63887775
   0.16666667  0.16666667  0.67998827
Direct configuration=    20
   0.16666667  0.16666667  0.40785113
   0.50000000  0.16666667  0.40785113
   0.83333333  0.16666667  0.40785113
   0.16666667  0.50000000  0.40785113
   0.50000000  0.50000000  0.40785113
   0.83333333  0.50000000  0.40785113
   0.16666667  0.83333333  0.40785113
   0.50000000  0.83333333  0.40785113
   0.83333333  0.83333333  0.40785113
   0.00000000  0.00000000  0.46928371
   0.33333333  0.00000000  0.46928371
   0.66666667  0.00000000  0.46928371
   0.00000000  0.33333333  0.46928371
   0.33333333  0.33333333  0.46928371
   0.66666667  0.33333333  0.46928371
   0.00000000  0.66666667  0.46928371
   0.33333333  0.66666667  0.46928371
   0.66666667  0.66666667  0.46928371
   0.16666667  0.16666667  0.53050989
   0.49812258  0.16666667  0.53338729
   0.83521075  0.16666667  0.53338729
   0.16666667  0.49812258  0.53338729
   0.49878965  0.49878965  0.53363869
   0.83454369  0.49878965  0.53363869
   0.16666667  0.83521075  0.53338729
   0.49878965  0.83454369  0.53363869
   0.83454369  0.83454369  0.53363869
   0.00106675  0.00106675  0.59738321
   0.33226659  0.00106675  0.59738321
   0.66666667  0.00079104  0.59518731
   0.00106675  0.33226659  0.59738321
   0.33226659  0.33226659  0.59738321
   0.66666667  0.33254230  0.59518731
   0.00079104  0.66666667  0.59518731
   0.33254230  0.66666667  0.59518731
   0.66666667  0.66666667  0.59537288
   0.16666667  0.16666667  0.63893489
   0.16666667  0.16666667  0.67999161
Direct configuration=    21
   0.16666667  0.16666667  0.40785113
   0.50000000  0.16666667  0.40785113
   0.83333333  0.16666667  0.40785113
   0.16666667  0.50000000  0.40785113
   0.50000000  0.50000000  0.40785113
   0.83333333  0.50000000  0.40785113
   0.16666667  0.83333333  0.40785113
   0.50000000  0.83333333  0.40785113