       N       E                     dE             d eps       ncg     rms          rms(c)
DAV:   1     0.380627195831E+04    0.38063E+04   -0.15726E+05  1992   0.164E+03
DAV:   2     0.389878489030E+03   -0.34164E+04   -0.32927E+04  1992   0.405E+02
DAV:   3    -0.836082500879E+02   -0.47349E+03   -0.43913E+03  2490   0.198E+02
DAV:   4    -0.160238938780E+03   -0.76631E+02   -0.71998E+02  3152   0.744E+01
DAV:   5    -0.166279214781E+03   -0.60403E+01   -0.56308E+01  3088   0.211E+01    0.449E+01
DAV:   6    -0.155795858444E+03    0.10483E+02   -0.34609E+02  2344   0.134E+02    0.274E+01
DAV:   7    -0.136695398077E+03    0.19100E+02   -0.75647E+01  2320   0.931E+01    0.847E+00
DAV:   8    -0.136785004675E+03   -0.89607E-01   -0.20250E+01  2728   0.537E+01    0.455E+00
DAV:   9    -0.137057724468E+03   -0.27272E+00   -0.64268E+00  2752   0.291E+01    0.430E+00
DAV:  10    -0.137102179177E+03   -0.44455E-01   -0.27661E+00  2360   0.271E+01    0.398E+00
DAV:  11    -0.136898049951E+03    0.20413E+00   -0.82714E-01  2448   0.155E+01    0.176E+00
DAV:  12    -0.136877120007E+03    0.20930E-01   -0.41888E-01  2968   0.636E+00    0.653E-01
DAV:  13    -0.136876672792E+03    0.44721E-03   -0.14711E-01  2344   0.440E+00    0.436E-01
DAV:  14    -0.136872221863E+03    0.44509E-02   -0.42432E-02  2255   0.192E+00    0.271E-01
DAV:  15    -0.136869065403E+03    0.31565E-02   -0.10359E-02  2472   0.132E+00    0.139E-01
DAV:  16    -0.136868306355E+03    0.75905E-03   -0.36350E-03  2416   0.732E-01    0.806E-02
DAV:  17    -0.136867868281E+03    0.43807E-03   -0.10620E-03  2528   0.395E-01    0.435E-02
DAV:  18    -0.136868040299E+03   -0.17202E-03   -0.53160E-04  2544   0.281E-01    0.368E-02
DAV:  19    -0.136868472917E+03   -0.43262E-03   -0.28312E-04  2160   0.242E-01    0.202E-02
DAV:  20    -0.136869021299E+03   -0.54838E-03   -0.14930E-04  2200   0.910E-02    0.235E-02
DAV:  21    -0.136869552508E+03   -0.53121E-03   -0.90939E-05  2456   0.103E-01    0.136E-02
DAV:  22    -0.136869795025E+03   -0.24252E-03   -0.43115E-05  2816   0.695E-02    0.926E-03
DAV:  23    -0.136870027444E+03   -0.23242E-03   -0.28321E-05  2535   0.431E-02    0.556E-03
DAV:  24    -0.136870139405E+03   -0.11196E-03   -0.64430E-06  1848   0.268E-02    0.492E-03
DAV:  25    -0.136870213311E+03   -0.73906E-04   -0.41375E-06  1712   0.203E-02    0.204E-03
DAV:  26    -0.136870293500E+03   -0.80189E-04   -0.56841E-06  1832   0.105E-02    0.326E-03
DAV:  27    -0.136870321911E+03   -0.28412E-04   -0.95557E-07  1312   0.110E-02    0.262E-03
DAV:  28    -0.136870350724E+03   -0.28812E-04   -0.11579E-06  1288   0.828E-03    0.103E-03
DAV:  29    -0.136870368163E+03   -0.17439E-04   -0.65260E-07  1264   0.401E-03    0.117E-03
DAV:  30    -0.136870378229E+03   -0.10066E-04   -0.35934E-07  1248   0.477E-03    0.828E-04
DAV:  31    -0.136870382988E+03   -0.47582E-05   -0.20450E-07  1280   0.339E-03    0.420E-04
DAV:  32    -0.136870386068E+03   -0.30801E-05   -0.97420E-08  1224   0.207E-03    0.295E-04
DAV:  33    -0.136870388634E+03   -0.25663E-05   -0.73608E-08  1224   0.163E-03    0.274E-04
DAV:  34    -0.136870389396E+03   -0.76217E-06   -0.36402E-08  1248   0.135E-03
   1 F= -.13687039E+03 E0= -.13683610E+03  d E =-.136870E+03
       N       E                     dE             d eps       ncg     rms          rms(c)
DAV:   1    -0.134755405291E+03    0.21150E+01   -0.24361E+02  1992   0.249E+01    0.408E+00
DAV:   2    -0.135742898901E+03   -0.98749E+00   -0.10998E+01  3311   0.172E+01    0.491E+00
DAV:   3    -0.135380106235E+03    0.36279E+00   -0.16441E+00  3045   0.230E+01    0.288E+00
DAV:   4    -0.135336182237E+03    0.43924E-01   -0.53487E-01  2783   0.162E+01    0.207E+00
DAV:   5    -0.135269471501E+03    0.66711E-01   -0.22075E-01  3004   0.117E+01    0.987E-01
DAV:   6    -0.135269392016E+03    0.79485E-04   -0.15642E-01  3044   0.524E+00    0.344E-01
DAV:   7    -0.135274157992E+03   -0.47660E-02   -0.53999E-02  2424   0.275E+00    0.304E-01
DAV:   8    -0.135275552961E+03   -0.13950E-02   -0.14862E-02  2254   0.142E+00    0.158E-01
DAV:   9    -0.135279144708E+03   -0.35917E-02   -0.56775E-03  2396   0.746E-01    0.114E-01
DAV:  10    -0.135279593763E+03   -0.44906E-03   -0.18442E-03  2280   0.683E-01    0.622E-02
DAV:  11    -0.135279901639E+03   -0.30788E-03   -0.50149E-04  2630   0.277E-01    0.249E-02
DAV:  12    -0.135280516459E+03   -0.61482E-03   -0.19173E-04  2879   0.122E-01    0.203E-02
DAV:  13    -0.135281093883E+03   -0.57742E-03   -0.17188E-04  2591   0.144E-01    0.179E-02
DAV:  14    -0.135281442926E+03   -0.34904E-03   -0.10495E-04  2744   0.796E-02    0.902E-03
DAV:  15    -0.135281677369E+03   -0.23444E-03   -0.47969E-05  2687   0.360E-02    0.744E-03
DAV:  16    -0.135281821431E+03   -0.14406E-03   -0.27106E-05  2752   0.539E-02    0.693E-03
DAV:  17    -0.135281900334E+03   -0.78903E-04   -0.17314E-05  2782   0.327E-02    0.355E-03
DAV:  18    -0.135281931193E+03   -0.30859E-04   -0.21897E-06  1424   0.117E-02    0.260E-03
DAV:  19    -0.135281952839E+03   -0.21646E-04   -0.14117E-06  1260   0.149E-02    0.200E-03
DAV:  20    -0.135281979008E+03   -0.26169E-04   -0.19703E-06  1435   0.109E-02    0.144E-03
DAV:  21    -0.135281988005E+03   -0.89977E-05   -0.87354E-07  1271   0.841E-03    0.115E-03
DAV:  22    -0.135281992927E+03   -0.49217E-05   -0.42509E-07  1204   0.584E-03    0.898E-04
DAV:  23    -0.135281997599E+03   -0.46722E-05   -0.38344E-07  1197   0.452E-03    0.539E-04
DAV:  24    -0.135281999913E+03   -0.23132E-05   -0.20681E-07  1181   0.341E-03    0.450E-04
DAV:  25    -0.135282001016E+03   -0.11038E-05   -0.10957E-07  1159   0.236E-03    0.349E-04
DAV:  26    -0.135282002559E+03   -0.15424E-05   -0.70606E-08  1141   0.181E-03    0.199E-04
DAV:  27    -0.135282003447E+03   -0.88807E-06   -0.35736E-08  1142   0.119E-03
   2 F= -.13528200E+03 E0= -.13524589E+03  d E =0.158839E+01
       N       E                     dE             d eps       ncg     rms          rms(c)
DAV:   1    -0.135979627480E+03   -0.69762E+00   -0.16272E+02  1993   0.246E+01    0.463E+00
DAV:   2    -0.137296649649E+03   -0.13170E+01   -0.13787E+01  3127   0.123E+01    0.393E+00
DAV:   3    -0.137128226865E+03    0.16842E+00   -0.10765E+00  3191   0.189E+01    0.227E+00
DAV:   4    -0.137045559998E+03    0.82667E-01   -0.32246E-01  2320   0.191E+01    0.181E+00
DAV:   5    -0.136963434952E+03    0.82125E-01   -0.14764E-01  2375   0.936E+00    0.845E-01
DAV:   6    -0.136953547841E+03    0.98871E-02   -0.13406E-01  2942   0.332E+00    0.417E-01
DAV:   7    -0.136954319263E+03   -0.77142E-03   -0.40559E-02  2296   0.272E+00    0.220E-01
DAV:   8    -0.136953928858E+03    0.39041E-03   -0.68776E-03  2247   0.125E+00    0.126E-01
DAV:   9    -0.136954165239E+03   -0.23638E-03   -0.35965E-03  2392   0.729E-01    0.995E-02
DAV:  10    -0.136954322467E+03   -0.15723E-03   -0.14107E-03  2344   0.553E-01    0.447E-02
DAV:  11    -0.136954596995E+03   -0.27453E-03   -0.59047E-04  2232   0.204E-01    0.346E-02
DAV:  12    -0.136954994991E+03   -0.39800E-03   -0.21921E-04  2208   0.153E-01    0.253E-02
DAV:  13    -0.136955444919E+03   -0.44993E-03   -0.14819E-04  2256   0.146E-01    0.168E-02
DAV:  14    -0.136955726153E+03   -0.28123E-03   -0.33922E-05  2872   0.758E-02    0.109E-02
DAV:  15    -0.136956096362E+03   -0.37021E-03   -0.37568E-05  2376   0.590E-02    0.709E-03
DAV:  16    -0.136956293920E+03   -0.19756E-03   -0.15470E-05  2496   0.484E-02    0.593E-03
DAV:  17    -0.136956465677E+03   -0.17176E-03   -0.97708E-06  2200   0.282E-02    0.251E-03
DAV:  18    -0.136956584152E+03   -0.11847E-03   -0.43254E-06  1654   0.149E-02    0.236E-03
DAV:  19    -0.136956621474E+03   -0.37323E-04   -0.16097E-06  1390   0.141E-02    0.150E-03
DAV:  20    -0.136956663039E+03   -0.41564E-04   -0.13611E-06  1365   0.861E-03    0.939E-04
DAV:  21    -0.136956680750E+03   -0.17711E-04   -0.72054E-07  1271   0.664E-03    0.995E-04
DAV:  22    -0.136956690593E+03   -0.98431E-05   -0.46836E-07  1245   0.533E-03    0.682E-04
DAV:  23    -0.136956696234E+03   -0.56407E-05   -0.27131E-07  1231   0.358E-03    0.433E-04
DAV:  24    -0.136956699696E+03   -0.34628E-05   -0.13259E-07  1168   0.245E-03    0.343E-04
DAV:  25    -0.136956701104E+03   -0.14073E-05   -0.63321E-08  1215   0.175E-03    0.199E-04
DAV:  26    -0.136956702972E+03   -0.18682E-05   -0.44114E-08  1148   0.115E-03    0.177E-04
DAV:  27    -0.136956703533E+03   -0.56095E-06   -0.21003E-08  1160   0.102E-03
   3 F= -.13695670E+03 E0= -.13692220E+03  d E =-.863141E-01
       N       E                     dE             d eps       ncg     rms          rms(c)
DAV:   1    -0.136957117045E+03   -0.41407E-03   -0.27766E-02  1994   0.271E-01    0.554E-02
DAV:   2    -0.136957244255E+03   -0.12721E-03   -0.15926E-03  3022   0.144E-01    0.458E-02
DAV:   3    -0.136957226047E+03    0.18208E-04   -0.14014E-04  2412   0.244E-01    0.318E-02
DAV:   4    -0.136957213879E+03    0.12169E-04   -0.72048E-05  2256   0.270E-01    0.239E-02
DAV:   5    -0.136957196947E+03    0.16932E-04   -0.30647E-05  2492   0.148E-01    0.512E-03
DAV:   6    -0.136957198057E+03   -0.11098E-05   -0.14000E-05  2888   0.342E-02    0.430E-03
DAV:   7    -0.136957198430E+03   -0.37352E-06   -0.40737E-06  1863   0.271E-02
   4 F= -.13695720E+03 E0= -.13692270E+03  d E =-.868090E-01
       N       E                     dE             d eps       ncg     rms          rms(c)
DAV:   1    -0.137062190966E+03   -0.10499E+00   -0.54825E+01  1992   0.154E+01    0.101E+00
DAV:   2    -0.137213276471E+03   -0.15109E+00   -0.16021E+00  3008   0.539E+00    0.932E-01
DAV:   3    -0.137206110404E+03    0.71661E-02   -0.64398E-02  2286   0.423E+00    0.548E-01
DAV:   4    -0.137204996264E+03    0.11141E-02   -0.12270E-02  2445   0.209E+00    0.408E-01
DAV:   5    -0.137206618942E+03   -0.16227E-02   -0.88979E-03  2412   0.272E+00    0.298E-01
DAV:   6    -0.137204259449E+03    0.23595E-02   -0.70437E-03  3155   0.244E+00    0.827E-02
DAV:   7    -0.137204375536E+03   -0.11609E-03   -0.34128E-03  3168   0.862E-01    0.576E-02
DAV:   8    -0.137204425468E+03   -0.49931E-04   -0.12334E-03  2230   0.322E-01    0.385E-02
DAV:   9    -0.137204422010E+03    0.34580E-05   -0.22425E-04  2222   0.160E-01    0.227E-02
DAV:  10    -0.137204419238E+03    0.27713E-05   -0.61786E-05  2536   0.960E-02    0.121E-02
DAV:  11    -0.137204418652E+03    0.58685E-06   -0.32622E-05  2461   0.696E-02    0.769E-03
DAV:  12    -0.137204418756E+03   -0.10495E-06   -0.86514E-06  2175   0.408E-02
   5 F= -.13720442E+03 E0= -.13717029E+03  d E =-.247220E+00
       N       E                     dE             d eps       ncg     rms          rms(c)
DAV:   1    -0.136117822443E+03    0.10866E+01   -0.50064E+02  2073   0.501E+01    0.371E+00
DAV:   2    -0.137738883549E+03   -0.16211E+01   -0.17119E+01  3072   0.193E+01    0.303E+00
DAV:   3    -0.137672345858E+03    0.66538E-01   -0.79198E-01  2286   0.169E+01    0.186E+00
DAV:   4    -0.137656719142E+03    0.15627E-01   -0.15599E-01  2309   0.870E+00    0.142E+00
DAV:   5    -0.137667999506E+03   -0.11280E-01   -0.10886E-01  2396   0.937E+00    0.110E+00
DAV:   6    -0.137642115180E+03    0.25884E-01   -0.87399E-02  3172   0.668E+00    0.195E-01
DAV:   7    -0.137646328043E+03   -0.42129E-02   -0.46333E-02  2655   0.147E+00    0.222E-01
DAV:   8    -0.137646312641E+03    0.15402E-04   -0.10025E-02  2223   0.121E+00    0.129E-01
DAV:   9    -0.137646108251E+03    0.20439E-03   -0.11304E-03  2600   0.527E-01    0.702E-02
DAV:  10    -0.137646137034E+03   -0.28783E-04   -0.91968E-04  2552   0.327E-01    0.459E-02
DAV:  11    -0.137646137018E+03    0.15192E-07   -0.35074E-04  2368   0.222E-01    0.354E-02
DAV:  12    -0.137646139122E+03   -0.21036E-05   -0.15963E-04  2247   0.169E-01    0.178E-02
DAV:  13    -0.137646143350E+03   -0.42278E-05   -0.53417E-05  2248   0.108E-01    0.789E-03
DAV:  14    -0.137646148243E+03   -0.48928E-05   -0.15513E-05  2376   0.414E-02    0.335E-03
DAV:  15    -0.137646152910E+03   -0.46670E-05   -0.24353E-06  1352   0.190E-02    0.282E-03
DAV:  16    -0.137646154961E+03   -0.20513E-05   -0.11171E-06  1232   0.147E-02    0.101E-03
DAV:  17    -0.137646158553E+03   -0.35920E-05   -0.59303E-07  1213   0.526E-03    0.636E-04
DAV:  18    -0.137646160659E+03   -0.21061E-05   -0.35448E-07  1216   0.389E-03    0.655E-04
DAV:  19    -0.137646162225E+03   -0.15658E-05   -0.21212E-07  1166   0.329E-03    0.406E-04
DAV:  20    -0.137646163093E+03   -0.86846E-06   -0.12112E-07  1184   0.223E-03
   6 F= -.13764616E+03 E0= -.13761474E+03  d E =-.688965E+00
       N       E                     dE             d eps       ncg     rms          rms(c)
DAV:   1    -0.137502620465E+03    0.14354E+00   -0.60686E+01  1992   0.163E+01    0.121E+00
DAV:   2    -0.137676467411E+03   -0.17385E+00   -0.18678E+00  3053   0.647E+00    0.107E+00
DAV:   3    -0.137666764302E+03    0.97031E-02   -0.10540E-01  2238   0.522E+00    0.627E-01
DAV:   4    -0.137665224404E+03    0.15399E-02   -0.19994E-02  2405   0.205E+00    0.422E-01
DAV:   5    -0.137666353178E+03   -0.11288E-02   -0.89349E-03  2476   0.230E+00    0.280E-01
DAV:   6    -0.137665281917E+03    0.10713E-02   -0.67242E-03  2659   0.265E+00    0.134E-01
DAV:   7    -0.137664962980E+03    0.31894E-03   -0.38197E-03  3421   0.132E+00    0.578E-02
DAV:   8    -0.137665062632E+03   -0.99652E-04   -0.15802E-03  2471   0.350E-01    0.420E-02
DAV:   9    -0.137665068654E+03   -0.60220E-05   -0.33441E-04  2224   0.188E-01    0.264E-02
DAV:  10    -0.137665066030E+03    0.26246E-05   -0.67123E-05  2583   0.898E-02    0.106E-02
DAV:  11    -0.137665072137E+03   -0.61078E-05   -0.35599E-05  2629   0.685E-02    0.704E-03
DAV:  12    -0.137665073548E+03   -0.14104E-05   -0.63805E-06  2168   0.414E-02    0.395E-03
DAV:  13    -0.137665075132E+03   -0.15845E-05   -0.17316E-06  1278   0.240E-02    0.163E-03
DAV:  14    -0.137665077447E+03   -0.23149E-05   -0.10792E-06  1240   0.999E-03    0.145E-03
DAV:  15    -0.137665078666E+03   -0.12187E-05   -0.53228E-07  1216   0.744E-03    0.821E-04
DAV:  16    -0.137665079761E+03   -0.10947E-05   -0.30295E-07  1168   0.398E-03    0.543E-04
DAV:  17    -0.137665080635E+03   -0.87451E-06   -0.20504E-07  1168   0.285E-03
   7 F= -.13766508E+03 E0= -.13763499E+03  d E =-.707882E+00
       N       E                     dE             d eps       ncg     rms          rms(c)
DAV:   1    -0.135924910187E+03    0.17402E+01   -0.14732E+02  1992   0.224E+01    0.370E+00
DAV:   2    -0.136650554123E+03   -0.72564E+00   -0.82100E+00  2991   0.774E+00    0.245E+00
DAV:   3    -0.136590067483E+03    0.60487E-01   -0.34397E-01  2343   0.108E+01    0.163E+00
DAV:   4    -0.136573938654E+03    0.16129E-01   -0.17931E-01  2296   0.153E+01    0.139E+00
DAV:   5    -0.136517533319E+03    0.56405E-01   -0.10430E-01  2528   0.104E+01    0.478E-01
DAV:   6    -0.136517696513E+03   -0.16319E-03   -0.49748E-02  3120   0.300E+00    0.239E-01
DAV:   7    -0.136517953848E+03   -0.25734E-03   -0.16918E-02  2392   0.164E+00    0.184E-01
DAV:   8    -0.136517649612E+03    0.30424E-03   -0.58264E-03  2288   0.787E-01    0.700E-02
DAV:   9    -0.136517897023E+03   -0.24741E-03   -0.17089E-03  2424   0.489E-01    0.643E-02
DAV:  10    -0.136518030465E+03   -0.13344E-03   -0.54288E-04  2264   0.343E-01    0.309E-02
DAV:  11    -0.136518337551E+03   -0.30709E-03   -0.19316E-04  2847   0.146E-01    0.161E-02
DAV:  12    -0.136518715314E+03   -0.37776E-03   -0.10641E-04  2320   0.110E-01    0.156E-02
DAV:  13    -0.136518945657E+03   -0.23034E-03   -0.48823E-05  2272   0.953E-02    0.931E-03
DAV:  14    -0.136519297641E+03   -0.35198E-03   -0.36972E-05  2758   0.481E-02    0.715E-03
DAV:  15    -0.136519453650E+03   -0.15601E-03   -0.11637E-05  2295   0.355E-02    0.510E-03
DAV:  16    -0.136519579398E+03   -0.12575E-03   -0.96963E-06  2182   0.351E-02    0.393E-03
DAV:  17    -0.136519660101E+03   -0.80703E-04   -0.32935E-06  1406   0.160E-02    0.331E-03
DAV:  18    -0.136519723904E+03   -0.63803E-04   -0.26527E-06  1582   0.198E-02    0.174E-03
DAV:  19    -0.136519743033E+03   -0.19129E-04   -0.94904E-07  1360   0.790E-03    0.135E-03
DAV:  20    -0.136519777856E+03   -0.34823E-04   -0.12620E-06  1293   0.968E-03    0.153E-03
DAV:  21    -0.136519789252E+03   -0.11395E-04   -0.67042E-07  1262   0.650E-03    0.727E-04
DAV:  22    -0.136519795901E+03   -0.66492E-05   -0.34801E-07  1256   0.424E-03    0.693E-04
DAV:  23    -0.136519801810E+03   -0.59085E-05   -0.26535E-07  1246   0.333E-03    0.302E-04
DAV:  24    -0.136519806502E+03   -0.46918E-05   -0.14601E-07  1207   0.237E-03    0.358E-04
DAV:  25    -0.136519808053E+03   -0.15517E-05   -0.66172E-08  1216   0.181E-03    0.234E-04
DAV:  26    -0.136519809095E+03   -0.10420E-05   -0.35039E-08  1152   0.124E-03    0.116E-04
DAV:  27    -0.136519809955E+03   -0.85949E-06   -0.21070E-08  1192   0.101E-03
   8 F= -.13651981E+03 E0= -.13649395E+03  d E =0.114527E+01
       N       E                     dE             d eps       ncg     rms          rms(c)
DAV:   1    -0.137470706317E+03   -0.95090E+00   -0.10550E+02  1992   0.176E+01    0.265E+00
DAV:   2    -0.137753075634E+03   -0.28237E+00   -0.43065E+00  2927   0.610E+00    0.204E+00
DAV:   3    -0.137721157594E+03    0.31918E-01   -0.24871E-01  2264   0.666E+00    0.153E+00
DAV:   4    -0.137710822566E+03    0.10335E-01   -0.10855E-01  2344   0.843E+00    0.115E+00
DAV:   5    -0.137698116315E+03    0.12706E-01   -0.61257E-02  2493   0.881E+00    0.611E-01
DAV:   6    -0.137692182942E+03    0.59334E-02   -0.31640E-02  2800   0.606E+00    0.280E-01
DAV:   7    -0.137691622630E+03    0.56031E-03   -0.15557E-02  3308   0.224E+00    0.123E-01
DAV:   8    -0.137692601217E+03   -0.97859E-03   -0.65171E-03  2332   0.628E-01    0.837E-02
DAV:   9    -0.137693416773E+03   -0.81556E-03   -0.20437E-03  2237   0.535E-01    0.614E-02
DAV:  10    -0.137693914892E+03   -0.49812E-03   -0.49075E-04  2486   0.326E-01    0.256E-02
DAV:  11    -0.137694137113E+03   -0.22222E-03   -0.16432E-04  2496   0.122E-01    0.191E-02
DAV:  12    -0.137694456501E+03   -0.31939E-03   -0.97784E-05  2278   0.105E-01    0.147E-02
DAV:  13    -0.137694618421E+03   -0.16192E-03   -0.35382E-05  2624   0.780E-02    0.965E-03
DAV:  14    -0.137694843212E+03   -0.22479E-03   -0.52769E-05  2461   0.448E-02    0.749E-03
DAV:  15    -0.137694989381E+03   -0.14617E-03   -0.25781E-05  2744   0.318E-02    0.694E-03
DAV:  16    -0.137695062326E+03   -0.72945E-04   -0.11359E-05  2352   0.325E-02    0.488E-03
DAV:  17    -0.137695107804E+03   -0.45478E-04   -0.73286E-06  2080   0.230E-02    0.406E-03
DAV:  18    -0.137695142077E+03   -0.34273E-04   -0.46932E-06  1632   0.207E-02    0.242E-03
DAV:  19    -0.137695151204E+03   -0.91267E-05   -0.93111E-07  1360   0.111E-02    0.180E-03
DAV:  20    -0.137695163724E+03   -0.12521E-04   -0.98319E-07  1246   0.117E-02    0.120E-03
DAV:  21    -0.137695171319E+03   -0.75945E-05   -0.74595E-07  1270   0.587E-03    0.701E-04
DAV:  22    -0.137695173687E+03   -0.23687E-05   -0.29846E-07  1280   0.430E-03    0.553E-04
DAV:  23    -0.137695176407E+03   -0.27196E-05   -0.20859E-07  1220   0.318E-03    0.499E-04
DAV:  24    -0.137695177752E+03   -0.13445E-05   -0.11118E-07  1206   0.259E-03    0.243E-04
DAV:  25    -0.137695178408E+03   -0.65612E-06   -0.52339E-08  1192   0.166E-03
   9 F= -.13769518E+03 E0= -.13766611E+03  d E =-.300978E-01
       N       E                     dE             d eps       ncg     rms          rms(c)
DAV:   1    -0.137713748793E+03   -0.18571E-01   -0.17653E+01  2000   0.913E+00    0.409E-01
DAV:   2    -0.137753940296E+03   -0.40192E-01   -0.42229E-01  3039   0.273E+00    0.417E-01
DAV:   3    -0.137752922284E+03    0.10180E-02   -0.16743E-02  2240   0.187E+00    0.260E-01
DAV:   4    -0.137752585666E+03    0.33662E-03   -0.31971E-03  2239   0.823E-01    0.208E-01
DAV:   5    -0.137752137702E+03    0.44796E-03   -0.22636E-03  3216   0.538E-01    0.890E-02
DAV:   6    -0.137752139232E+03   -0.15305E-05   -0.11603E-03  2262   0.795E-01    0.489E-02
DAV:   7    -0.137752093899E+03    0.45334E-04   -0.25013E-04  2852   0.462E-01    0.242E-02
DAV:   8    -0.137752096487E+03   -0.25888E-05   -0.19055E-04  2874   0.185E-01    0.167E-02
DAV:   9    -0.137752096391E+03    0.96683E-07   -0.47799E-05  2272   0.455E-02    0.929E-03
DAV:  10    -0.137752094975E+03    0.14158E-05   -0.61633E-06  2318   0.351E-02    0.488E-03
DAV:  11    -0.137752095014E+03   -0.38650E-07   -0.36778E-06  1832   0.247E-02
  10 F= -.13775210E+03 E0= -.13772351E+03  d E =-.569166E-01
       N       E                     dE             d eps       ncg     rms          rms(c)
DAV:   1    -0.137431816038E+03    0.32028E+00   -0.16184E+02  2000   0.286E+01    0.131E+00
DAV:   2    -0.137834864880E+03   -0.40305E+00   -0.42347E+00  3032   0.927E+00    0.137E+00
DAV:   3    -0.137820999684E+03    0.13865E-01   -0.17992E-01  2248   0.655E+00    0.788E-01
DAV:   4    -0.137818845313E+03    0.21544E-02   -0.36034E-02  2256   0.233E+00    0.645E-01
DAV:   5    -0.137815700436E+03    0.31449E-02   -0.22582E-02  2925   0.292E+00    0.402E-01
DAV:   6    -0.137813582116E+03    0.21183E-02   -0.14699E-02  2535   0.310E+00    0.768E-02
DAV:   7    -0.137813807580E+03   -0.22546E-03   -0.48337E-03  3149   0.122E+00    0.101E-01
DAV:   8    -0.137813781934E+03    0.25646E-04   -0.24245E-03  2172   0.674E-01    0.635E-02
DAV:   9    -0.137813790266E+03   -0.83322E-05   -0.71411E-04  2232   0.209E-01    0.439E-02
DAV:  10    -0.137813764217E+03    0.26049E-04   -0.15398E-04  2419   0.148E-01    0.209E-02
DAV:  11    -0.137813763258E+03    0.95897E-06   -0.72471E-05  3134   0.492E-02    0.105E-02
DAV:  12    -0.137813765588E+03   -0.23294E-05   -0.29811E-05  2212   0.763E-02    0.752E-03
DAV:  13    -0.137813766464E+03   -0.87643E-06   -0.72368E-06  2048   0.369E-02
  11 F= -.13781377E+03 E0= -.13778612E+03  d E =-.118588E+00
       N       E                     dE             d eps       ncg     rms          rms(c)
DAV:   1    -0.137810626723E+03    0.31389E-02   -0.20501E+00  2001   0.310E+00    0.134E-01
DAV:   2    -0.137814963338E+03   -0.43366E-02   -0.45076E-02  2998   0.910E-01    0.131E-01
DAV:   3    -0.137814904736E+03    0.58602E-04   -0.18317E-03  2212   0.563E-01    0.857E-02
DAV:   4    -0.137814871676E+03    0.33059E-04   -0.30138E-04  2260   0.362E-01    0.693E-02
DAV:   5    -0.137814864311E+03    0.73655E-05   -0.20053E-04  3555   0.368E-01    0.394E-02
DAV:   6    -0.137814822335E+03    0.41975E-04   -0.12326E-04  3324   0.361E-01    0.209E-02
DAV:   7    -0.137814820126E+03    0.22096E-05   -0.72460E-05  2728   0.131E-01    0.105E-02
DAV:   8    -0.137814820789E+03   -0.66322E-06   -0.29191E-05  2264   0.562E-02    0.616E-03
DAV:   9    -0.137814821332E+03   -0.54255E-06   -0.81727E-06  2128   0.239E-02
  12 F= -.13781482E+03 E0= -.13778711E+03  d E =-.119643E+00
       N       E                     dE             d eps       ncg     rms          rms(c)
DAV:   1    -0.137770596751E+03    0.44224E-01   -0.14784E+01  1992   0.790E+00    0.596E-01
DAV:   2    -0.137818655195E+03   -0.48058E-01   -0.51260E-01  3005   0.265E+00    0.578E-01
DAV:   3    -0.137816391391E+03    0.22638E-02   -0.19636E-02  2253   0.220E+00    0.410E-01
DAV:   4    -0.137815534226E+03    0.85716E-03   -0.56663E-03  2284   0.163E+00    0.309E-01
DAV:   5    -0.137814967440E+03    0.56679E-03   -0.48081E-03  2468   0.200E+00    0.189E-01
DAV:   6    -0.137814280335E+03    0.68711E-03   -0.30164E-03  2831   0.162E+00    0.523E-02
DAV:   7    -0.137814311824E+03   -0.31489E-04   -0.11127E-03  3302   0.456E-01    0.346E-02
DAV:   8    -0.137814341513E+03   -0.29689E-04   -0.40366E-04  2304   0.222E-01    0.278E-02
DAV:   9    -0.137814354675E+03   -0.13162E-04   -0.12960E-04  2212   0.137E-01    0.153E-02
DAV:  10    -0.137814376216E+03   -0.21542E-04   -0.39645E-05  2443   0.762E-02    0.611E-03
DAV:  11    -0.137814390037E+03   -0.13820E-04   -0.16496E-05  2167   0.372E-02    0.454E-03
DAV:  12    -0.137814397324E+03   -0.72870E-05   -0.38272E-06  1868   0.280E-02    0.290E-03
DAV:  13    -0.137814405738E+03   -0.84146E-05   -0.90975E-07  1294   0.127E-02    0.171E-03
DAV:  14    -0.137814417826E+03   -0.12088E-04   -0.11425E-06  1299   0.907E-03    0.101E-03
DAV:  15    -0.137814423590E+03   -0.57644E-05   -0.66982E-07  1280   0.709E-03    0.119E-03
DAV:  16    -0.137814428580E+03   -0.49898E-05   -0.53866E-07  1204   0.589E-03    0.795E-04
DAV:  17    -0.137814433698E+03   -0.51179E-05   -0.46670E-07  1237   0.414E-03    0.538E-04
DAV:  18    -0.137814436671E+03   -0.29727E-05   -0.30113E-07  1230   0.320E-03    0.514E-04
DAV:  19    -0.137814437665E+03   -0.99425E-06   -0.16030E-07  1224   0.278E-03
  13 F= -.13781444E+03 E0= -.13778770E+03  d E =0.383667E-03
       N       E                     dE             d eps       ncg     rms          rms(c)
DAV:   1    -0.137813306854E+03    0.11298E-02   -0.36750E+00  1992   0.392E+00    0.294E-01
DAV:   2    -0.137824179670E+03   -0.10873E-01   -0.11814E-01  3008   0.125E+00    0.279E-01
DAV:   3    -0.137823700501E+03    0.47917E-03   -0.45504E-03  2239   0.876E-01    0.198E-01
DAV:   4    -0.137823475651E+03    0.22485E-03   -0.14175E-03  2296   0.652E-01    0.141E-01
DAV:   5    -0.137823255160E+03    0.22049E-03   -0.90139E-04  2892   0.528E-01    0.489E-02
DAV:   6    -0.137823267848E+03   -0.12688E-04   -0.39154E-04  2608   0.396E-01    0.295E-02
DAV:   7    -0.137823267451E+03    0.39634E-06   -0.11482E-04  2943   0.255E-01    0.172E-02
DAV:   8    -0.137823276432E+03   -0.89802E-05   -0.48456E-05  2742   0.118E-01    0.112E-02
DAV:   9    -0.137823287899E+03   -0.11468E-04   -0.24745E-05  2229   0.619E-02    0.558E-03
DAV:  10    -0.137823294596E+03   -0.66970E-05   -0.10819E-05  2232   0.405E-02    0.437E-03
DAV:  11    -0.137823299807E+03   -0.52107E-05   -0.25206E-06  1367   0.182E-02    0.171E-03
DAV:  12    -0.137823305430E+03   -0.56229E-05   -0.88087E-07  1277   0.965E-03    0.151E-03
DAV:  13    -0.137823308849E+03   -0.34192E-05   -0.57548E-07  1264   0.852E-03    0.849E-04
DAV:  14    -0.137823312535E+03   -0.36855E-05   -0.49419E-07  1223   0.555E-03    0.676E-04
DAV:  15    -0.137823315293E+03   -0.27581E-05   -0.46009E-07  1248   0.485E-03    0.673E-04
DAV:  16    -0.137823317128E+03   -0.18348E-05   -0.26893E-07  1200   0.292E-03    0.534E-04
DAV:  17    -0.137823318330E+03   -0.12019E-05   -0.19103E-07  1192   0.305E-03    0.287E-04
DAV:  18    -0.137823319415E+03   -0.10853E-05   -0.15760E-07  1208   0.178E-03    0.300E-04
DAV:  19    -0.137823319737E+03   -0.32171E-06   -0.62420E-08  1224   0.155E-03
  14 F= -.13782332E+03 E0= -.13779613E+03  d E =-.849840E-02
       N       E                     dE             d eps       ncg     rms          rms(c)
DAV:   1    -0.137828161123E+03   -0.48417E-02   -0.74377E-01  1992   0.179E+00    0.112E-01
DAV:   2    -0.137830023228E+03   -0.18621E-02   -0.19606E-02  3008   0.569E-01    0.928E-02
DAV:   3    -0.137830014217E+03    0.90101E-05   -0.11121E-03  2239   0.470E-01    0.659E-02
DAV:   4    -0.137829991312E+03    0.22906E-04   -0.18796E-04  2261   0.252E-01    0.456E-02
DAV:   5    -0.137829996718E+03   -0.54068E-05   -0.10236E-04  3020   0.228E-01    0.268E-02
DAV:   6    -0.137829987976E+03    0.87427E-05   -0.70848E-05  2371   0.252E-01    0.970E-03
DAV:   7    -0.137829986902E+03    0.10732E-05   -0.20776E-05  3050   0.942E-02    0.536E-03
DAV:   8    -0.137829987443E+03   -0.54040E-06   -0.13973E-05  2287   0.372E-02    0.420E-03
DAV:   9    -0.137829987512E+03   -0.69500E-07   -0.33232E-06  1600   0.170E-02
  15 F= -.13782999E+03 E0= -.13780298E+03  d E =-.666778E-02
       N       E                     dE             d eps       ncg     rms          rms(c)
DAV:   1    -0.137830914598E+03   -0.92715E-03   -0.66937E+00  1992   0.536E+00    0.339E-01
DAV:   2    -0.137848112293E+03   -0.17198E-01   -0.18143E-01  3038   0.175E+00    0.289E-01
DAV:   3    -0.137847901839E+03    0.21045E-03   -0.98908E-03  2222   0.148E+00    0.198E-01
DAV:   4    -0.137847706275E+03    0.19556E-03   -0.17266E-03  2250   0.812E-01    0.141E-01
DAV:   5    -0.137847829038E+03   -0.12276E-03   -0.98625E-04  2626   0.886E-01    0.970E-02
DAV:   6    -0.137847651283E+03    0.17775E-03   -0.76836E-04  2730   0.826E-01    0.232E-02
DAV:   7    -0.137847669330E+03   -0.18047E-04   -0.31886E-04  3298   0.233E-01    0.182E-02
DAV:   8    -0.137847673383E+03   -0.40532E-05   -0.12001E-04  2159   0.120E-01    0.141E-02
DAV:   9    -0.137847673171E+03    0.21129E-06   -0.27396E-05  2272   0.510E-02    0.908E-03
DAV:  10    -0.137847671788E+03    0.13831E-05   -0.89164E-06  2198   0.392E-02    0.411E-03
DAV:  11    -0.137847671658E+03    0.13015E-06   -0.32527E-06  1509   0.179E-02
  16 F= -.13784767E+03 E0= -.13782117E+03  d E =-.243519E-01
       N       E                     dE             d eps       ncg     rms          rms(c)
DAV:   1    -0.137803367467E+03    0.44304E-01   -0.26775E+01  1992   0.108E+01    0.689E-01
DAV:   2    -0.137875013917E+03   -0.71646E-01   -0.75798E-01  3022   0.363E+00    0.602E-01
DAV:   3    -0.137873532321E+03    0.14816E-02   -0.37840E-02  2239   0.309E+00    0.396E-01
DAV:   4    -0.137872744425E+03    0.78790E-03   -0.68729E-03  2234   0.174E+00    0.292E-01
DAV:   5    -0.137873187897E+03   -0.44347E-03   -0.43954E-03  2450   0.199E+00    0.210E-01
DAV:   6    -0.137872279050E+03    0.90885E-03   -0.35215E-03  2914   0.165E+00    0.427E-02
DAV:   7    -0.137872414805E+03   -0.13576E-03   -0.15888E-03  3046   0.404E-01    0.423E-02
DAV:   8    -0.137872421380E+03   -0.65743E-05   -0.45764E-04  2199   0.264E-01    0.280E-02
DAV:   9    -0.137872417167E+03    0.42127E-05   -0.88163E-05  2272   0.956E-02    0.165E-02
DAV:  10    -0.137872412718E+03    0.44485E-05   -0.34183E-05  2694   0.699E-02    0.785E-03
DAV:  11    -0.137872413144E+03   -0.42585E-06   -0.14627E-05  2230   0.420E-02    0.507E-03
DAV:  12    -0.137872413341E+03   -0.19709E-06   -0.59126E-06  1992   0.371E-02
  17 F= -.13787241E+03 E0= -.13784666E+03  d E =-.490936E-01
       N       E                     dE             d eps       ncg     rms          rms(c)
DAV:   1    -0.137584707101E+03    0.28771E+00   -0.10722E+02  1992   0.217E+01    0.143E+00
DAV:   2    -0.137894036847E+03   -0.30933E+00   -0.32577E+00  3037   0.739E+00    0.123E+00
DAV:   3    -0.137886119434E+03    0.79174E-02   -0.13837E-01  2239   0.628E+00    0.791E-01
DAV:   4    -0.137883191927E+03    0.29275E-02   -0.27974E-02  2243   0.375E+00    0.612E-01
DAV:   5    -0.137883881605E+03   -0.68968E-03   -0.19764E-02  2354   0.422E+00    0.444E-01
DAV:   6    -0.137880207936E+03    0.36737E-02   -0.16287E-02  3146   0.314E+00    0.845E-02
DAV:   7    -0.137880821874E+03   -0.61394E-03   -0.67795E-03  2935   0.707E-01    0.910E-02
DAV:   8    -0.137880817350E+03    0.45247E-05   -0.18828E-03  2184   0.587E-01    0.554E-02
DAV:   9    -0.137880795897E+03    0.21453E-04   -0.29860E-04  2320   0.201E-01    0.310E-02
DAV:  10    -0.137880784052E+03    0.11845E-04   -0.14791E-04  2702   0.139E-01    0.154E-02
DAV:  11    -0.137880786977E+03   -0.29247E-05   -0.59944E-05  2224   0.868E-02    0.105E-02
DAV:  12    -0.137880787874E+03   -0.89745E-06   -0.23652E-05  2200   0.731E-02    0.642E-03
DAV:  13    -0.137880788030E+03   -0.15623E-06   -0.29526E-06  1548   0.267E-02
  18 F= -.13788079E+03 E0= -.13785576E+03  d E =-.574683E-01
       N       E                     dE             d eps       ncg     rms          rms(c)
DAV:   1    -0.137854697198E+03    0.26091E-01   -0.11784E+01  1992   0.710E+00    0.444E-01
DAV:   2    -0.137884507590E+03   -0.29810E-01   -0.31186E-01  3000   0.235E+00    0.374E-01
DAV:   3    -0.137884268098E+03    0.23949E-03   -0.17687E-02  2212   0.192E+00    0.256E-01
DAV:   4    -0.137883982405E+03    0.28569E-03   -0.28801E-03  2218   0.111E+00    0.184E-01
DAV:   5    -0.137884214067E+03   -0.23166E-03   -0.15210E-03  3315   0.105E+00    0.110E-01
DAV:   6    -0.137883923089E+03    0.29098E-03   -0.10382E-03  2515   0.110E+00    0.506E-02
DAV:   7    -0.137883914557E+03    0.85316E-05   -0.59141E-04  2872   0.387E-01    0.255E-02
DAV:   8    -0.137883927516E+03   -0.12959E-04   -0.25170E-04  2232   0.122E-01    0.185E-02
DAV:   9    -0.137883928054E+03   -0.53743E-06   -0.66018E-05  2247   0.827E-02    0.104E-02
DAV:  10    -0.137883926795E+03    0.12589E-05   -0.10885E-05  2222   0.515E-02    0.401E-03
DAV:  11    -0.137883926557E+03    0.23824E-06   -0.25157E-06  1309   0.178E-02
  19 F= -.13788393E+03 E0= -.13785876E+03  d E =-.606068E-01
       N       E                     dE             d eps       ncg     rms          rms(c)
DAV:   1    -0.137882236615E+03    0.16902E-02   -0.27236E+00  1992   0.309E+00    0.295E-01
DAV:   2    -0.137891186254E+03   -0.89496E-02   -0.98766E-02  2988   0.100E+00    0.284E-01
DAV:   3    -0.137890617003E+03    0.56925E-03   -0.38610E-03  2188   0.811E-01    0.196E-01
DAV:   4    -0.137890510966E+03    0.10604E-03   -0.13969E-03  2280   0.767E-01    0.142E-01
DAV:   5    -0.137890426148E+03    0.84818E-04   -0.90763E-04  2420   0.972E-01    0.830E-02
DAV:   6    -0.137890321877E+03    0.10427E-03   -0.55029E-04  2456   0.794E-01    0.309E-02
DAV:   7    -0.137890300309E+03    0.21567E-04   -0.20711E-04  3271   0.301E-01    0.138E-02
DAV:   8    -0.137890310740E+03   -0.10430E-04   -0.98593E-05  2815   0.886E-02    0.117E-02
DAV:   9    -0.137890314860E+03   -0.41208E-05   -0.21787E-05  2207   0.543E-02    0.750E-03
DAV:  10    -0.137890320955E+03   -0.60945E-05   -0.92831E-06  2205   0.399E-02    0.355E-03
DAV:  11    -0.137890326101E+03   -0.51464E-05   -0.27330E-06  1448   0.203E-02    0.196E-03
DAV:  12    -0.137890329366E+03   -0.32653E-05   -0.84237E-07  1212   0.102E-02    0.151E-03
DAV:  13    -0.137890333151E+03   -0.37849E-05   -0.62241E-07  1214   0.901E-03    0.939E-04
DAV:  14    -0.137890336711E+03   -0.35600E-05   -0.44082E-07  1182   0.416E-03    0.773E-04
DAV:  15    -0.137890340892E+03   -0.41801E-05   -0.53801E-07  1221   0.560E-03    0.898E-04
DAV:  16    -0.137890342984E+03   -0.20922E-05   -0.28704E-07  1183   0.423E-03    0.540E-04
DAV:  17    -0.137890345561E+03   -0.25771E-05   -0.28311E-07  1205   0.341E-03    0.451E-04
DAV:  18    -0.137890346727E+03   -0.11663E-05   -0.16564E-07  1183   0.225E-03    0.319E-04
DAV:  19    -0.137890347344E+03   -0.61671E-06   -0.79902E-08  1174   0.178E-03
  20 F= -.13789035E+03 E0= -.13786544E+03  d E =-.642079E-02
       N       E                     dE             d eps       ncg     rms          rms(c)
DAV:   1    -0.137890335256E+03    0.11471E-04   -0.70042E-03  1995   0.156E-01    0.150E-02
DAV:   2    -0.137890358130E+03   -0.22874E-04   -0.24944E-04  2965   0.528E-02    0.145E-02
DAV:   3    -0.137890356590E+03    0.15403E-05   -0.96313E-06  2191   0.385E-02    0.990E-03
DAV:   4    -0.137890356330E+03    0.26013E-06   -0.34874E-06  1566   0.331E-02
  21 F= -.13789036E+03 E0= -.13786546E+03  d E =-.642977E-02
       N       E                     dE             d eps       ncg     rms          rms(c)
DAV:   1    -0.137894124718E+03   -0.37681E-02   -0.94124E-01  1992   0.176E+00    0.177E-01
DAV:   2    -0.137896873102E+03   -0.27484E-02   -0.29814E-02  2981   0.558E-01    0.131E-01
DAV:   3    -0.137896777890E+03    0.95212E-04   -0.10972E-03  2154   0.430E-01    0.858E-02
DAV:   4    -0.137896781502E+03   -0.36119E-05   -0.36622E-04  2291   0.349E-01    0.582E-02
DAV:   5    -0.137896785413E+03   -0.39109E-05   -0.14030E-04  2414   0.254E-01    0.190E-02
DAV:   6    -0.137896790354E+03   -0.49410E-05   -0.58523E-05  3035   0.149E-01    0.117E-02
DAV:   7    -0.137896788616E+03    0.17375E-05   -0.29630E-05  2813   0.136E-01    0.847E-03
DAV:   8    -0.137896787624E+03    0.99232E-06   -0.81916E-06  2176   0.525E-02
  22 F= -.13789679E+03 E0= -.13787198E+03  d E =-.643129E-02
       N       E                     dE             d eps       ncg     rms          rms(c)
DAV:   1    -0.137889822288E+03    0.69663E-02   -0.84764E+00  1992   0.528E+00    0.529E-01
DAV:   2    -0.137914962230E+03   -0.25140E-01   -0.27284E-01  3004   0.166E+00    0.394E-01
DAV:   3    -0.137914201418E+03    0.76081E-03   -0.10761E-02  2203   0.136E+00    0.258E-01
DAV:   4    -0.137914139914E+03    0.61504E-04   -0.34961E-03  2290   0.109E+00    0.178E-01
DAV:   5    -0.137914226376E+03   -0.86461E-04   -0.13968E-03  2438   0.831E-01    0.741E-02
DAV:   6    -0.137914282221E+03   -0.55846E-04   -0.84635E-04  2541   0.711E-01    0.452E-02
DAV:   7    -0.137914249980E+03    0.32241E-04   -0.25033E-04  3107   0.471E-01    0.214E-02
DAV:   8    -0.137914246268E+03    0.37120E-05   -0.11701E-04  3228   0.175E-01    0.147E-02
DAV:   9    -0.137914246541E+03   -0.27346E-06   -0.38056E-05  2319   0.623E-02    0.939E-03
DAV:  10    -0.137914246225E+03    0.31653E-06   -0.16207E-05  2195   0.456E-02    0.518E-03
DAV:  11    -0.137914246599E+03   -0.37404E-06   -0.51190E-06  2056   0.259E-02
  23 F= -.13791425E+03 E0= -.13788970E+03  d E =-.238903E-01
       N       E                     dE             d eps       ncg     rms          rms(c)
DAV:   1    -0.137840270471E+03    0.73976E-01   -0.33909E+01  1992   0.105E+01    0.106E+00
DAV:   2    -0.137945095460E+03   -0.10482E+00   -0.11268E+00  3004   0.322E+00    0.787E-01
DAV:   3    -0.137942112190E+03    0.29833E-02   -0.45260E-02  2230   0.269E+00    0.518E-01
DAV:   4    -0.137941739236E+03    0.37295E-03   -0.14051E-02  2259   0.238E+00    0.374E-01
DAV:   5    -0.137941607937E+03    0.13130E-03   -0.65124E-03  2338   0.233E+00    0.211E-01
DAV:   6    -0.137941455590E+03    0.15235E-03   -0.46606E-03  2570   0.212E+00    0.950E-02
DAV:   7    -0.137941252232E+03    0.20336E-03   -0.13458E-03  3282   0.974E-01    0.424E-02
DAV:   8    -0.137941266474E+03   -0.14242E-04   -0.71717E-04  3008   0.301E-01    0.306E-02
DAV:   9    -0.137941272356E+03   -0.58815E-05   -0.20577E-04  2248   0.128E-01    0.200E-02
DAV:  10    -0.137941269377E+03    0.29787E-05   -0.65118E-05  2221   0.963E-02    0.115E-02
DAV:  11    -0.137941270652E+03   -0.12747E-05   -0.26941E-05  2239   0.650E-02    0.711E-03
DAV:  12    -0.137941271244E+03   -0.59186E-06   -0.62064E-06  2069   0.295E-02
  24 F= -.13794127E+03 E0= -.13791719E+03  d E =-.509149E-01
       N       E                     dE             d eps       ncg     rms          rms(c)
DAV:   1    -0.137518515147E+03    0.42276E+00   -0.13523E+02  1992   0.211E+01    0.232E+00
DAV:   2    -0.137987248311E+03   -0.46873E+00   -0.50131E+00  3029   0.624E+00    0.167E+00
DAV:   3    -0.137967916893E+03    0.19331E-01   -0.15660E-01  2230   0.528E+00    0.107E+00
DAV:   4    -0.137968568764E+03   -0.65187E-03   -0.55918E-02  2267   0.554E+00    0.837E-01
DAV:   5    -0.137966965635E+03    0.16031E-02   -0.29624E-02  2322   0.591E+00    0.519E-01
DAV:   6    -0.137963836705E+03    0.31289E-02   -0.20462E-02  2892   0.440E+00    0.174E-01
DAV:   7    -0.137963684522E+03    0.15218E-03   -0.70412E-03  3293   0.164E+00    0.894E-02
DAV:   8    -0.137963733852E+03   -0.49329E-04   -0.28499E-03  2645   0.619E-01    0.537E-02
DAV:   9    -0.137963777156E+03   -0.43305E-04   -0.91937E-04  2256   0.303E-01    0.406E-02
DAV:  10    -0.137963773721E+03    0.34347E-05   -0.34542E-04  2196   0.229E-01    0.167E-02
DAV:  11    -0.137963779983E+03   -0.62618E-05   -0.82543E-05  2392   0.948E-02    0.894E-03
DAV:  12    -0.137963782061E+03   -0.20779E-05   -0.14676E-05  2204   0.546E-02    0.588E-03
DAV:  13    -0.137963783705E+03   -0.16439E-05   -0.52395E-06  2006   0.286E-02    0.358E-03
DAV:  14    -0.137963787249E+03   -0.35443E-05   -0.37870E-06  1876   0.242E-02    0.258E-03
DAV:  15    -0.137963788533E+03   -0.12836E-05   -0.74372E-07  1213   0.103E-02    0.154E-03
DAV:  16    -0.137963790405E+03   -0.18720E-05   -0.64350E-07  1188   0.948E-03    0.902E-04
DAV:  17    -0.137963791863E+03   -0.14578E-05   -0.25413E-07  1189   0.328E-03    0.661E-04
DAV:  18    -0.137963792914E+03   -0.10512E-05   -0.16356E-07  1173   0.353E-03    0.438E-04
DAV:  19    -0.137963794577E+03   -0.16627E-05   -0.15682E-07  1188   0.266E-03    0.591E-04
DAV:  20    -0.137963795354E+03   -0.77731E-06   -0.13506E-07  1191   0.284E-03
  25 F= -.13796380E+03 E0= -.13794067E+03  d E =-.734390E-01
       N       E                     dE             d eps       ncg     rms          rms(c)
DAV:   1    -0.137931618479E+03    0.32176E-01   -0.12940E+01  1992   0.603E+00    0.635E-01
DAV:   2    -0.137970382171E+03   -0.38764E-01   -0.41520E-01  2940   0.189E+00    0.487E-01
DAV:   3    -0.137969429501E+03    0.95267E-03   -0.16016E-02  2229   0.159E+00    0.345E-01
DAV:   4    -0.137969256358E+03    0.17314E-03   -0.58703E-03  2252   0.169E+00    0.255E-01
DAV:   5    -0.137969052188E+03    0.20417E-03   -0.29690E-03  2348   0.163E+00    0.127E-01
DAV:   6    -0.137968941314E+03    0.11087E-03   -0.17115E-03  2571   0.134E+00    0.598E-02
DAV:   7    -0.137968871506E+03    0.69808E-04   -0.61973E-04  3380   0.585E-01    0.283E-02
DAV:   8    -0.137968885298E+03   -0.13792E-04   -0.25514E-04  2895   0.168E-01    0.189E-02
DAV:   9    -0.137968894701E+03   -0.94030E-05   -0.86326E-05  2220   0.965E-02    0.134E-02
DAV:  10    -0.137968901106E+03   -0.64053E-05   -0.30478E-05  2204   0.747E-02    0.576E-03
DAV:  11    -0.137968907381E+03   -0.62751E-05   -0.10478E-05  2179   0.357E-02    0.278E-03
DAV:  12    -0.137968910825E+03   -0.34439E-05   -0.15548E-06  1212   0.156E-02    0.247E-03
DAV:  13    -0.137968912915E+03   -0.20901E-05   -0.96334E-07  1212   0.119E-02    0.140E-03
DAV:  14    -0.137968916982E+03   -0.40667E-05   -0.59672E-07  1235   0.830E-03    0.890E-04
DAV:  15    -0.137968919232E+03   -0.22502E-05   -0.42917E-07  1204   0.495E-03    0.678E-04
DAV:  16    -0.137968920319E+03   -0.10876E-05   -0.23193E-07  1180   0.350E-03    0.448E-04
DAV:  17    -0.137968921512E+03   -0.11931E-05   -0.18662E-07  1148   0.256E-03    0.370E-04
DAV:  18    -0.137968922796E+03   -0.12833E-05   -0.16324E-07  1211   0.225E-03    0.335E-04
DAV:  19    -0.137968923159E+03   -0.36357E-06   -0.72500E-08  1198   0.158E-03
  26 F= -.13796892E+03 E0= -.13794614E+03  d E =-.512781E-02
       N       E                     dE             d eps       ncg     rms          rms(c)
DAV:   1    -0.137966942450E+03    0.19803E-02   -0.11318E+00  1992   0.178E+00    0.184E-01
DAV:   2    -0.137970076171E+03   -0.31337E-02   -0.33911E-02  2918   0.563E-01    0.139E-01
DAV:   3    -0.137970016038E+03    0.60133E-04   -0.14700E-03  2213   0.487E-01    0.101E-01
DAV:   4    -0.137970006741E+03    0.92973E-05   -0.47333E-04  2269   0.437E-01    0.691E-02
DAV:   5    -0.137970012494E+03   -0.57531E-05   -0.19565E-04  2677   0.276E-01    0.168E-02
DAV:   6    -0.137970022223E+03   -0.97290E-05   -0.79125E-05  3124   0.172E-01    0.157E-02
DAV:   7    -0.137970018829E+03    0.33939E-05   -0.36771E-05  2348   0.153E-01    0.976E-03
DAV:   8    -0.137970019128E+03   -0.29913E-06   -0.12036E-05  2334   0.529E-02    0.510E-03
DAV:   9    -0.137970020481E+03   -0.13530E-05   -0.57602E-06  2004   0.247E-02    0.327E-03
DAV:  10    -0.137970021335E+03   -0.85402E-06   -0.20323E-06  1277   0.193E-02
  27 F= -.13797002E+03 E0= -.13794714E+03  d E =-.622598E-02
       N       E                     dE             d eps       ncg     rms          rms(c)
DAV:   1    -0.137969522984E+03    0.49750E-03   -0.33112E+00  1992   0.315E+00    0.292E-01
DAV:   2    -0.137978460482E+03   -0.89375E-02   -0.95183E-02  2908   0.934E-01    0.213E-01
DAV:   3    -0.137978361329E+03    0.99153E-04   -0.34157E-03  2235   0.771E-01    0.149E-01
DAV:   4    -0.137978419942E+03   -0.58613E-04   -0.11698E-03  2235   0.888E-01    0.118E-01
DAV:   5    -0.137978419596E+03    0.34599E-06   -0.57251E-04  2371   0.830E-01    0.605E-02
DAV:   6    -0.137978373686E+03    0.45910E-04   -0.34982E-04  2659   0.582E-01    0.223E-02
DAV:   7    -0.137978373472E+03    0.21420E-06   -0.15316E-04  3276   0.194E-01    0.119E-02
DAV:   8    -0.137978375498E+03   -0.20260E-05   -0.47015E-05  2536   0.642E-02    0.905E-03
DAV:   9    -0.137978375647E+03   -0.14919E-06   -0.14104E-05  2214   0.432E-02    0.574E-03
DAV:  10    -0.137978375405E+03    0.24168E-06   -0.29654E-06  1454   0.280E-02
  28 F= -.13797838E+03 E0= -.13795568E+03  d E =-.835407E-02
       N       E                     dE             d eps       ncg     rms          rms(c)
DAV:   1    -0.137910857495E+03    0.67518E-01   -0.29762E+01  1992   0.944E+00    0.921E-01
DAV:   2    -0.137999060988E+03   -0.88203E-01   -0.93224E-01  2972   0.291E+00    0.674E-01
DAV:   3    -0.137997407954E+03    0.16530E-02   -0.30132E-02  2220   0.248E+00    0.460E-01
DAV:   4    -0.137997999488E+03   -0.59153E-03   -0.10551E-02  2250   0.308E+00    0.388E-01
DAV:   5    -0.137996768973E+03    0.12305E-02   -0.54047E-03  2370   0.267E+00    0.174E-01
DAV:   6    -0.137996539057E+03    0.22992E-03   -0.35768E-03  2807   0.159E+00    0.728E-02
DAV:   7    -0.137996547944E+03   -0.88871E-05   -0.14663E-03  3022   0.552E-01    0.354E-02
DAV:   8    -0.137996565092E+03   -0.17148E-04   -0.39430E-04  2415   0.182E-01    0.265E-02
DAV:   9    -0.137996567087E+03   -0.19948E-05   -0.14342E-04  2229   0.147E-01    0.162E-02
DAV:  10    -0.137996565874E+03    0.12128E-05   -0.32808E-05  2781   0.667E-02    0.359E-03
DAV:  11    -0.137996567794E+03   -0.19196E-05   -0.92130E-06  2224   0.367E-02    0.429E-03
DAV:  12    -0.137996568439E+03   -0.64552E-06   -0.31385E-06  1660   0.236E-02
  29 F= -.13799657E+03 E0= -.13797442E+03  d E =-.265471E-01
       N       E                     dE             d eps       ncg     rms          rms(c)
DAV:   1    -0.137610150725E+03    0.38642E+00   -0.11856E+02  1992   0.189E+01    0.212E+00
DAV:   2    -0.138017652758E+03   -0.40750E+00   -0.42985E+00  2988   0.578E+00    0.146E+00
DAV:   3    -0.138006318363E+03    0.11334E-01   -0.12341E-01  2254   0.495E+00    0.979E-01
DAV:   4    -0.138010014207E+03   -0.36958E-02   -0.41373E-02  2267   0.670E+00    0.862E-01
DAV:   5    -0.138000708577E+03    0.93056E-02   -0.21301E-02  2338   0.542E+00    0.354E-01
DAV:   6    -0.138001071355E+03   -0.36278E-03   -0.16749E-02  3079   0.285E+00    0.187E-01
DAV:   7    -0.138000887717E+03    0.18364E-03   -0.59062E-03  2823   0.135E+00    0.691E-02
DAV:   8    -0.138000987082E+03   -0.99365E-04   -0.19228E-03  2263   0.341E-01    0.482E-02
DAV:   9    -0.138001002365E+03   -0.15283E-04   -0.55392E-04  2224   0.297E-01    0.333E-02
DAV:  10    -0.138000997789E+03    0.45758E-05   -0.12047E-04  2740   0.142E-01    0.842E-03
DAV:  11    -0.138001005015E+03   -0.72255E-05   -0.42775E-05  2687   0.776E-02    0.767E-03
DAV:  12    -0.138001006967E+03   -0.19519E-05   -0.97688E-06  2141   0.421E-02    0.367E-03
DAV:  13    -0.138001011036E+03   -0.40693E-05   -0.20507E-06  1284   0.240E-02    0.206E-03
DAV:  14    -0.138001014751E+03   -0.37153E-05   -0.17878E-06  1292   0.124E-02    0.158E-03
DAV:  15    -0.138001016454E+03   -0.17029E-05   -0.67690E-07  1200   0.794E-03    0.101E-03
DAV:  16    -0.138001017489E+03   -0.10345E-05   -0.42499E-07  1172   0.442E-03    0.669E-04
DAV:  17    -0.138001020745E+03   -0.32566E-05   -0.40086E-07  1204   0.354E-03    0.630E-04
DAV:  18    -0.138001021643E+03   -0.89750E-06   -0.17421E-07  1215   0.344E-03
  30 F= -.13800102E+03 E0= -.13797982E+03  d E =-.310003E-01
       N       E                     dE             d eps       ncg     rms          rms(c)
DAV:   1    -0.137953697335E+03    0.47323E-01   -0.20615E+01  1992   0.775E+00    0.716E-01
DAV:   2    -0.138005162623E+03   -0.51465E-01   -0.54534E-01  2968   0.223E+00    0.513E-01
DAV:   3    -0.138004766731E+03    0.39589E-03   -0.20550E-02  2286   0.188E+00    0.368E-01
DAV:   4    -0.138004736432E+03    0.30299E-04   -0.59454E-03  2244   0.206E+00    0.268E-01
DAV:   5    -0.138005111016E+03   -0.37458E-03   -0.28551E-03  2411   0.198E+00    0.129E-01
DAV:   6    -0.138004590839E+03    0.52018E-03   -0.16643E-03  3162   0.140E+00    0.545E-02
DAV:   7    -0.138004612451E+03   -0.21612E-04   -0.10584E-03  3080   0.479E-01    0.359E-02
DAV:   8    -0.138004616540E+03   -0.40891E-05   -0.26042E-04  2288   0.160E-01    0.229E-02
DAV:   9    -0.138004618276E+03   -0.17354E-05   -0.10615E-04  2205   0.103E-01    0.146E-02
DAV:  10    -0.138004616681E+03    0.15941E-05   -0.19228E-05  2558   0.701E-02    0.571E-03
DAV:  11    -0.138004617570E+03   -0.88871E-06   -0.88185E-06  2448   0.363E-02
  31 F= -.13800462E+03 E0= -.13798307E+03  d E =-.345962E-01
       N       E                     dE             d eps       ncg     rms          rms(c)
DAV:   1    -0.138001795347E+03    0.28213E-02   -0.27888E+00  1992   0.297E+00    0.250E-01
DAV:   2    -0.138009317101E+03   -0.75218E-02   -0.80515E-02  2909   0.104E+00    0.208E-01
DAV:   3    -0.138009073439E+03    0.24366E-03   -0.33034E-03  2280   0.871E-01    0.144E-01
DAV:   4    -0.138009005470E+03    0.67969E-04   -0.66160E-04  2236   0.587E-01    0.105E-01
DAV:   5    -0.138009111743E+03   -0.10627E-03   -0.53539E-04  2373   0.703E-01    0.622E-02
DAV:   6    -0.138008991679E+03    0.12006E-03   -0.31203E-04  2755   0.578E-01    0.162E-02
DAV:   7    -0.138009008342E+03   -0.16663E-04   -0.15867E-04  3054   0.118E-01    0.122E-02
DAV:   8    -0.138009012346E+03   -0.40034E-05   -0.32691E-05  2198   0.623E-02    0.841E-03
DAV:   9    -0.138009015675E+03   -0.33290E-05   -0.10036E-05  2189   0.399E-02    0.398E-03
DAV:  10    -0.138009019786E+03   -0.41113E-05   -0.20930E-06  1301   0.187E-02    0.193E-03
DAV:  11    -0.138009022824E+03   -0.30383E-05   -0.14469E-06  1232   0.130E-02    0.162E-03
DAV:  12    -0.138009025064E+03   -0.22393E-05   -0.80636E-07  1221   0.106E-02    0.112E-03
DAV:  13    -0.138009026406E+03   -0.13426E-05   -0.39469E-07  1200   0.480E-03    0.599E-04
DAV:  14    -0.138009029999E+03   -0.35927E-05   -0.56758E-07  1204   0.502E-03    0.896E-04
DAV:  15    -0.138009030951E+03   -0.95170E-06   -0.23443E-07  1216   0.297E-03
  32 F= -.13800903E+03 E0= -.13798746E+03  d E =-.441338E-02
       N       E                     dE             d eps       ncg     rms          rms(c)
DAV:   1    -0.138007925407E+03    0.11046E-02   -0.58176E-01  1993   0.136E+00    0.113E-01
DAV:   2    -0.138009470082E+03   -0.15447E-02   -0.16481E-02  2906   0.455E-01    0.924E-02
DAV:   3    -0.138009428597E+03    0.41485E-04   -0.68096E-04  2296   0.382E-01    0.651E-02
DAV:   4    -0.138009414044E+03    0.14553E-04   -0.13817E-04  2236   0.258E-01    0.465E-02
DAV:   5    -0.138009430449E+03   -0.16405E-04   -0.10320E-04  2396   0.285E-01    0.252E-02
DAV:   6    -0.138009410983E+03    0.19466E-04   -0.58964E-05  2779   0.244E-01    0.773E-03
DAV:   7    -0.138009414029E+03   -0.30464E-05   -0.27684E-05  3067   0.583E-02    0.532E-03
DAV:   8    -0.138009415199E+03   -0.11690E-05   -0.64146E-06  2063   0.272E-02    0.371E-03
DAV:   9    -0.138009416224E+03   -0.10250E-05   -0.21095E-06  1246   0.179E-02    0.192E-03
DAV:  10    -0.138009417501E+03   -0.12779E-05   -0.51527E-07  1223   0.927E-03    0.852E-04
DAV:  11    -0.138009418408E+03   -0.90682E-06   -0.38093E-07  1184   0.589E-03
  33 F= -.13800942E+03 E0= -.13798783E+03  d E =-.480084E-02
       N       E                     dE             d eps       ncg     rms          rms(c)
DAV:   1    -0.138010641248E+03   -0.12237E-02   -0.47559E-01  1992   0.127E+00    0.877E-02
DAV:   2    -0.138011857774E+03   -0.12165E-02   -0.12613E-02  2908   0.384E-01    0.737E-02
DAV:   3    -0.138011843559E+03    0.14215E-04   -0.45768E-04  2189   0.318E-01    0.535E-02
DAV:   4    -0.138011838528E+03    0.50305E-05   -0.90308E-05  2235   0.274E-01    0.421E-02
DAV:   5    -0.138011847974E+03   -0.94462E-05   -0.68564E-05  2828   0.271E-01    0.217E-02
DAV:   6    -0.138011835495E+03    0.12480E-04   -0.43917E-05  2910   0.189E-01    0.678E-03
DAV:   7    -0.138011837905E+03   -0.24101E-05   -0.24812E-05  2872   0.364E-02    0.439E-03
DAV:   8    -0.138011838027E+03   -0.12247E-06   -0.26977E-06  1510   0.208E-02
  34 F= -.13801184E+03 E0= -.13799026E+03  d E =-.241962E-02
       N       E                     dE             d eps       ncg     rms          rms(c)
DAV:   1    -0.138006925615E+03    0.49123E-02   -0.42774E+00  1992   0.381E+00    0.269E-01
DAV:   2    -0.138018236278E+03   -0.11311E-01   -0.11757E-01  2922   0.122E+00    0.230E-01
DAV:   3    -0.138018038659E+03    0.19762E-03   -0.43484E-03  2172   0.103E+00    0.163E-01
DAV:   4    -0.138017978316E+03    0.60343E-04   -0.82819E-04  2234   0.841E-01    0.129E-01
DAV:   5    -0.138018057932E+03   -0.79616E-04   -0.67194E-04  2826   0.816E-01    0.658E-02
DAV:   6    -0.138017954012E+03    0.10392E-03   -0.43424E-04  2915   0.567E-01    0.203E-02
DAV:   7    -0.138017972997E+03   -0.18986E-04   -0.22975E-04  2743   0.113E-01    0.132E-02
DAV:   8    -0.138017972874E+03    0.12346E-06   -0.29764E-05  2183   0.632E-02    0.105E-02
DAV:   9    -0.138017972175E+03    0.69878E-06   -0.12557E-05  2183   0.450E-02    0.516E-03
DAV:  10    -0.138017972202E+03   -0.27067E-07   -0.45154E-06  1844   0.278E-02
  35 F= -.13801797E+03 E0= -.13799639E+03  d E =-.855379E-02
       N       E                     dE             d eps       ncg     rms          rms(c)
DAV:   1    -0.137978441745E+03    0.39530E-01   -0.17082E+01  1992   0.764E+00    0.559E-01
DAV:   2    -0.138026634756E+03   -0.48193E-01   -0.50107E-01  2922   0.258E+00    0.483E-01
DAV:   3    -0.138025680611E+03    0.95415E-03   -0.18090E-02  2188   0.218E+00    0.335E-01
DAV:   4    -0.138025304204E+03    0.37641E-03   -0.34183E-03  2234   0.173E+00    0.268E-01
DAV:   5    -0.138025228927E+03    0.75277E-04   -0.30050E-03  2850   0.164E+00    0.133E-01
DAV:   6    -0.138024888066E+03    0.34086E-03   -0.19229E-03  2867   0.113E+00    0.436E-02
DAV:   7    -0.138024959838E+03   -0.71773E-04   -0.93159E-04  2760   0.263E-01    0.277E-02
DAV:   8    -0.138024961705E+03   -0.18667E-05   -0.16904E-04  2199   0.150E-01    0.228E-02
DAV:   9    -0.138024959032E+03    0.26730E-05   -0.65036E-05  2215   0.966E-02    0.110E-02
DAV:  10    -0.138024958832E+03    0.19977E-06   -0.19860E-05  2356   0.611E-02    0.589E-03
DAV:  11    -0.138024959403E+03   -0.57108E-06   -0.78725E-06  2181   0.309E-02
  36 F= -.13802496E+03 E0= -.13800336E+03  d E =-.155410E-01
       N       E                     dE             d eps       ncg     rms          rms(c)
DAV:   1    -0.137814606460E+03    0.21035E+00   -0.68172E+01  1992   0.153E+01    0.120E+00
DAV:   2    -0.138028086000E+03   -0.21348E+00   -0.22169E+00  2940   0.539E+00    0.102E+00
DAV:   3    -0.138022743864E+03    0.53421E-02   -0.74906E-02  2222   0.455E+00    0.695E-01
DAV:   4    -0.138021107813E+03    0.16361E-02   -0.14703E-02  2244   0.374E+00    0.569E-01
DAV:   5    -0.138018652805E+03    0.24550E-02   -0.13639E-02  2811   0.323E+00    0.259E-01
DAV:   6    -0.138017852064E+03    0.80074E-03   -0.87710E-03  2909   0.218E+00    0.102E-01
DAV:   7    -0.138018074266E+03   -0.22220E-03   -0.35989E-03  2640   0.669E-01    0.552E-02
DAV:   8    -0.138018109394E+03   -0.35129E-04   -0.91597E-04  2207   0.319E-01    0.480E-02
DAV:   9    -0.138018107221E+03    0.21733E-05   -0.36883E-04  2215   0.223E-01    0.244E-02
DAV:  10    -0.138018103583E+03    0.36380E-05   -0.65082E-05  2517   0.127E-01    0.118E-02
DAV:  11    -0.138018106004E+03   -0.24209E-05   -0.34042E-05  2725   0.632E-02    0.528E-03
DAV:  12    -0.138018107037E+03   -0.10334E-05   -0.72657E-06  2143   0.407E-02    0.395E-03
DAV:  13    -0.138018107859E+03   -0.82166E-06   -0.28186E-06  1517   0.191E-02
  37 F= -.13801811E+03 E0= -.13799634E+03  d E =-.868945E-02
       N       E                     dE             d eps       ncg     rms          rms(c)
DAV:   1    -0.137935541389E+03    0.82566E-01   -0.36932E+01  1992   0.112E+01    0.795E-01
DAV:   2    -0.138028916952E+03   -0.93376E-01   -0.97096E-01  2934   0.303E+00    0.648E-01
DAV:   3    -0.138026860254E+03    0.20567E-02   -0.27830E-02  2384   0.196E+00    0.460E-01
DAV:   4    -0.138026628859E+03    0.23140E-03   -0.77781E-03  2277   0.219E+00    0.370E-01
DAV:   5    -0.138026302390E+03    0.32647E-03   -0.46046E-03  2292   0.230E+00    0.171E-01
DAV:   6    -0.138025800627E+03    0.50176E-03   -0.33872E-03  3146   0.175E+00    0.744E-02
DAV:   7    -0.138025808949E+03   -0.83218E-05   -0.18832E-03  2944   0.682E-01    0.481E-02
DAV:   8    -0.138025822289E+03   -0.13340E-04   -0.54426E-04  2231   0.221E-01    0.363E-02
DAV:   9    -0.138025817240E+03    0.50484E-05   -0.19719E-04  2205   0.144E-01    0.215E-02
DAV:  10    -0.138025812029E+03    0.52110E-05   -0.23520E-05  2806   0.691E-02    0.986E-03
DAV:  11    -0.138025811381E+03    0.64884E-06   -0.15463E-05  2604   0.262E-02    0.539E-03
DAV:  12    -0.138025811738E+03   -0.35745E-06   -0.58761E-06  2150   0.323E-02
  38 F= -.13802581E+03 E0= -.13800418E+03  d E =-.163933E-01
       N       E                     dE             d eps       ncg     rms          rms(c)
DAV:   1    -0.138027638898E+03   -0.18275E-02   -0.13987E-01  1994   0.740E-01    0.831E-02
DAV:   2    -0.138028096684E+03   -0.45779E-03   -0.50947E-03  2940   0.316E-01    0.671E-02
DAV:   3    -0.138028052755E+03    0.43929E-04   -0.28025E-04  2263   0.304E-01    0.460E-02
DAV:   4    -0.138028031592E+03    0.21163E-04   -0.13304E-04  2292   0.187E-01    0.239E-02
DAV:   5    -0.138028023909E+03    0.76835E-05   -0.56665E-05  3341   0.102E-01    0.646E-03
DAV:   6    -0.138028025624E+03   -0.17148E-05   -0.12455E-05  2319   0.594E-02    0.603E-03
DAV:   7    -0.138028025806E+03   -0.18225E-06   -0.40318E-06  1912   0.437E-02
  39 F= -.13802803E+03 E0= -.13800637E+03  d E =-.221407E-02
       N       E                     dE             d eps       ncg     rms          rms(c)
DAV:   1    -0.138028401871E+03   -0.37625E-03   -0.10607E-01  1994   0.646E-01    0.725E-02
DAV:   2    -0.138028754075E+03   -0.35220E-03   -0.39260E-03  2916   0.249E-01    0.571E-02
DAV:   3    -0.138028723626E+03    0.30449E-04   -0.20287E-04  2304   0.241E-01    0.399E-02
DAV:   4    -0.138028708558E+03    0.15068E-04   -0.99705E-05  2316   0.172E-01    0.221E-02
DAV:   5    -0.138028702439E+03    0.61186E-05   -0.43113E-05  3405   0.978E-02    0.601E-03
DAV:   6    -0.138028705039E+03   -0.25995E-05   -0.10669E-05  2316   0.654E-02    0.577E-03
DAV:   7    -0.138028705315E+03   -0.27637E-06   -0.32411E-06  1704   0.470E-02
  40 F= -.13802871E+03 E0= -.13800703E+03  d E =-.289358E-02
       N       E                     dE             d eps       ncg     rms          rms(c)
DAV:   1    -0.138029997638E+03   -0.12926E-02   -0.46322E-02  2002   0.454E-01    0.230E-02
DAV:   2    -0.138030100465E+03   -0.10283E-03   -0.10609E-03  2926   0.134E-01    0.223E-02
DAV:   3    -0.138030098659E+03    0.18055E-05   -0.46141E-05  2244   0.925E-02    0.153E-02
DAV:   4    -0.138030098504E+03    0.15507E-06   -0.78009E-06  2175   0.466E-02
  41 F= -.13803010E+03 E0= -.13800841E+03  d E =-.139319E-02
       N       E                     dE             d eps       ncg     rms          rms(c)
DAV:   1    -0.138033158617E+03   -0.30600E-02   -0.41657E-01  2001   0.136E+00    0.679E-02
DAV:   2    -0.138034024384E+03   -0.86577E-03   -0.90351E-03  2932   0.401E-01    0.653E-02
DAV:   3    -0.138034011806E+03    0.12578E-04   -0.45089E-04  2256   0.283E-01    0.465E-02
DAV:   4    -0.138034004093E+03    0.77125E-05   -0.71483E-05  2238   0.143E-01    0.344E-02
DAV:   5    -0.138034004350E+03   -0.25710E-06   -0.54640E-05  3269   0.934E-02    0.130E-02
DAV:   6    -0.138034003716E+03    0.63411E-06   -0.22498E-05  2396   0.112E-01    0.790E-03
DAV:   7    -0.138034003172E+03    0.54383E-06   -0.68298E-06  2232   0.459E-02
  42 F= -.13803400E+03 E0= -.13801228E+03  d E =-.529786E-02
       N       E                     dE             d eps       ncg     rms          rms(c)
DAV:   1    -0.138037203695E+03   -0.32000E-02   -0.16684E+00  2001   0.272E+00    0.139E-01
DAV:   2    -0.138040707425E+03   -0.35037E-02   -0.36699E-02  2925   0.870E-01    0.138E-01
DAV:   3    -0.138040639978E+03    0.67447E-04   -0.20660E-03  2288   0.628E-01    0.928E-02
DAV:   4    -0.138040611871E+03    0.28107E-04   -0.33453E-04  2255   0.272E-01    0.689E-02
DAV:   5    -0.138040606500E+03    0.53712E-05   -0.22588E-04  3084   0.164E-01    0.236E-02
DAV:   6    -0.138040606029E+03    0.47049E-06   -0.95433E-05  2349   0.216E-01    0.140E-02
DAV:   7    -0.138040605084E+03    0.94471E-06   -0.24507E-05  2493   0.102E-01    0.747E-03
DAV:   8    -0.138040606160E+03   -0.10759E-05   -0.13415E-05  2336   0.410E-02    0.484E-03
DAV:   9    -0.138040607558E+03   -0.13977E-05   -0.51682E-06  1932   0.194E-02    0.257E-03
DAV:  10    -0.138040608097E+03   -0.53889E-06   -0.77758E-07  1240   0.115E-02
  43 F= -.13804061E+03 E0= -.13801881E+03  d E =-.119028E-01
       N       E                     dE             d eps       ncg     rms          rms(c)
DAV:   1    -0.138035306245E+03    0.53013E-02   -0.66748E+00  2001   0.544E+00    0.285E-01
DAV:   2    -0.138049659808E+03   -0.14354E-01   -0.15132E-01  2951   0.188E+00    0.292E-01
DAV:   3    -0.138049212745E+03    0.44706E-03   -0.81178E-03  2272   0.133E+00    0.186E-01
DAV:   4    -0.138049097166E+03    0.11558E-03   -0.14512E-03  2261   0.583E-01    0.143E-01
DAV:   5    -0.138049160944E+03   -0.63778E-04   -0.95912E-04  2404   0.804E-01    0.902E-02
DAV:   6    -0.138048985088E+03    0.17586E-03   -0.68151E-04  2395   0.777E-01    0.238E-02
DAV:   7    -0.138049014209E+03   -0.29121E-04   -0.37405E-04  2880   0.221E-01    0.185E-02
DAV:   8    -0.138049020299E+03   -0.60897E-05   -0.10027E-04  2182   0.101E-01    0.127E-02
DAV:   9    -0.138049021872E+03   -0.15737E-05   -0.26470E-05  2167   0.486E-02    0.711E-03
DAV:  10    -0.138049023871E+03   -0.19984E-05   -0.53991E-06  2031   0.277E-02    0.378E-03
DAV:  11    -0.138049025970E+03   -0.20996E-05   -0.17241E-06  1293   0.179E-02    0.296E-03
DAV:  12    -0.138049027544E+03   -0.15740E-05   -0.18688E-06  1263   0.147E-02    0.180E-03
DAV:  13    -0.138049028747E+03   -0.12027E-05   -0.80477E-07  1207   0.110E-02    0.961E-04
DAV:  14    -0.138049029340E+03   -0.59308E-06   -0.51005E-07  1184   0.367E-03
  44 F= -.13804903E+03 E0= -.13802708E+03  d E =-.203240E-01
       N       E                     dE             d eps       ncg     rms          rms(c)
DAV:   1    -0.137988247170E+03    0.60782E-01   -0.26723E+01  2001   0.109E+01    0.600E-01
DAV:   2    -0.138050263196E+03   -0.62016E-01   -0.65764E-01  2984   0.408E+00    0.623E-01
DAV:   3    -0.138047423153E+03    0.28400E-02   -0.29648E-02  2256   0.284E+00    0.378E-01
DAV:   4    -0.138046916614E+03    0.50654E-03   -0.62528E-03  2317   0.141E+00    0.305E-01
DAV:   5    -0.138046941971E+03   -0.25357E-04   -0.49407E-03  2283   0.202E+00    0.219E-01
DAV:   6    -0.138045923706E+03    0.10183E-02   -0.33061E-03  2442   0.162E+00    0.392E-02
DAV:   7    -0.138046170029E+03   -0.24632E-03   -0.24022E-03  2694   0.378E-01    0.500E-02
DAV:   8    -0.138046172928E+03   -0.28992E-05   -0.40029E-04  2208   0.206E-01    0.309E-02
DAV:   9    -0.138046166988E+03    0.59397E-05   -0.89462E-05  2214   0.107E-01    0.153E-02
DAV:  10    -0.138046171407E+03   -0.44188E-05   -0.23018E-05  3072   0.479E-02    0.732E-03
DAV:  11    -0.138046178493E+03   -0.70856E-05   -0.10316E-05  2326   0.427E-02    0.473E-03
DAV:  12    -0.138046183714E+03   -0.52209E-05   -0.53628E-06  2048   0.279E-02    0.306E-03
DAV:  13    -0.138046186903E+03   -0.31891E-05   -0.13361E-06  1230   0.168E-02    0.128E-03
DAV:  14    -0.138046191586E+03   -0.46837E-05   -0.74234E-07  1255   0.595E-03    0.877E-04
DAV:  15    -0.138046194988E+03   -0.34017E-05   -0.46843E-07  1239   0.617E-03    0.836E-04
DAV:  16    -0.138046196869E+03   -0.18806E-05   -0.25561E-07  1192   0.369E-03    0.387E-04
DAV:  17    -0.138046200198E+03   -0.33288E-05   -0.37915E-07  1205   0.232E-03    0.481E-04
DAV:  18    -0.138046201550E+03   -0.13523E-05   -0.16363E-07  1207   0.281E-03    0.336E-04
DAV:  19    -0.138046202523E+03   -0.97335E-06   -0.10827E-07  1165   0.202E-03
  45 F= -.13804620E+03 E0= -.13802390E+03  d E =-.174972E-01
       N       E                     dE             d eps       ncg     rms          rms(c)
DAV:   1    -0.138029216755E+03    0.16985E-01   -0.10092E+01  2002   0.672E+00    0.347E-01
DAV:   2    -0.138052375138E+03   -0.23158E-01   -0.24189E-01  2924   0.212E+00    0.361E-01
DAV:   3    -0.138051514896E+03    0.86024E-03   -0.98468E-03  2263   0.152E+00    0.235E-01
DAV:   4    -0.138051292379E+03    0.22252E-03   -0.16359E-03  2372   0.837E-01    0.188E-01
DAV:   5    -0.138051393418E+03   -0.10104E-03   -0.15287E-03  2788   0.116E+00    0.110E-01
DAV:   6    -0.138051031514E+03    0.36190E-03   -0.11386E-03  3220   0.960E-01    0.273E-02
DAV:   7    -0.138051078208E+03   -0.46694E-04   -0.56086E-04  2944   0.220E-01    0.245E-02
DAV:   8    -0.138051081824E+03   -0.36152E-05   -0.14745E-04  2191   0.123E-01    0.162E-02
DAV:   9    -0.138051080908E+03    0.91537E-06   -0.29957E-05  2239   0.590E-02    0.798E-03
DAV:  10    -0.138051081297E+03   -0.38877E-06   -0.60760E-06  2205   0.399E-02
  46 F= -.13805108E+03 E0= -.13802901E+03  d E =-.223760E-01
       N       E                     dE             d eps       ncg     rms          rms(c)
DAV:   1    -0.138049208905E+03    0.18720E-02   -0.12663E+00  1993   0.224E+00    0.186E-01
DAV:   2    -0.138052434957E+03   -0.32261E-02   -0.34844E-02  2908   0.807E-01    0.155E-01
DAV:   3    -0.138052294069E+03    0.14089E-03   -0.20834E-03  2189   0.748E-01    0.108E-01
DAV:   4    -0.138052202040E+03    0.92030E-04   -0.60620E-04  2261   0.517E-01    0.667E-02
DAV:   5    -0.138052200426E+03    0.16142E-05   -0.37559E-04  2620   0.548E-01    0.491E-02
DAV:   6    -0.138052148812E+03    0.51614E-04   -0.18549E-04  2468   0.431E-01    0.140E-02
DAV:   7    -0.138052154711E+03   -0.58990E-05   -0.88694E-05  2925   0.975E-02    0.877E-03
DAV:   8    -0.138052158108E+03   -0.33968E-05   -0.25757E-05  2192   0.431E-02    0.660E-03
DAV:   9    -0.138052160531E+03   -0.24225E-05   -0.82962E-06  2141   0.376E-02    0.401E-03
DAV:  10    -0.138052163584E+03   -0.30538E-05   -0.15769E-06  1318   0.172E-02    0.136E-03
DAV:  11    -0.138052165513E+03   -0.19284E-05   -0.82029E-07  1191   0.519E-03    0.134E-03
DAV:  12    -0.138052166964E+03   -0.14508E-05   -0.51448E-07  1172   0.814E-03    0.950E-04
DAV:  13    -0.138052168227E+03   -0.12633E-05   -0.17416E-07  1182   0.426E-03    0.594E-04
DAV:  14    -0.138052170332E+03   -0.21057E-05   -0.22709E-07  1213   0.342E-03    0.402E-04
DAV:  15    -0.138052171621E+03   -0.12881E-05   -0.16266E-07  1182   0.280E-03    0.478E-04
DAV:  16    -0.138052172525E+03   -0.90484E-06   -0.11074E-07  1173   0.239E-03
  47 F= -.13805217E+03 E0= -.13803009E+03  d E =-.109123E-02
       N       E                     dE             d eps       ncg     rms          rms(c)
DAV:   1    -0.138052177115E+03   -0.54947E-05   -0.11582E-01  1994   0.678E-01    0.562E-02
DAV:   2    -0.138052466750E+03   -0.28963E-03   -0.31553E-03  2919   0.218E-01    0.455E-02
DAV:   3    -0.138052454012E+03    0.12739E-04   -0.16810E-04  2213   0.198E-01    0.323E-02
DAV:   4    -0.138052445200E+03    0.88113E-05   -0.52923E-05  2264   0.150E-01    0.199E-02
DAV:   5    -0.138052442534E+03    0.26660E-05   -0.29606E-05  3204   0.127E-01    0.107E-02
DAV:   6    -0.138052440826E+03    0.17082E-05   -0.11225E-05  2271   0.111E-01    0.514E-03
DAV:   7    -0.138052440569E+03    0.25687E-06   -0.30395E-06  1526   0.380E-02
  48 F= -.13805244E+03 E0= -.13803036E+03  d E =-.135927E-02
       N       E                     dE             d eps       ncg     rms          rms(c)
DAV:   1    -0.138052884308E+03   -0.44348E-03   -0.10478E+00  1994   0.207E+00    0.123E-01
DAV:   2    -0.138055188403E+03   -0.23041E-02   -0.24251E-02  2909   0.552E-01    0.107E-01
DAV:   3    -0.138055144293E+03    0.44110E-04   -0.87394E-04  2264   0.339E-01    0.794E-02
DAV:   4    -0.138055132941E+03    0.11351E-04   -0.21354E-04  2237   0.352E-01    0.620E-02
DAV:   5    -0.138055146875E+03   -0.13934E-04   -0.14705E-04  3532   0.355E-01    0.266E-02
DAV:   6    -0.138055119742E+03    0.27133E-04   -0.76261E-05  3531   0.286E-01    0.160E-02
DAV:   7    -0.138055119795E+03   -0.53493E-07   -0.34751E-05  2567   0.918E-02    0.824E-03
DAV:   8    -0.138055121378E+03   -0.15830E-05   -0.14837E-05  2112   0.371E-02    0.494E-03
DAV:   9    -0.138055122772E+03   -0.13937E-05   -0.46719E-06  1957   0.227E-02    0.242E-03
DAV:  10    -0.138055123629E+03   -0.85682E-06   -0.10868E-06  1192   0.159E-02
  49 F= -.13805512E+03 E0= -.13803297E+03  d E =-.268306E-02
       N       E                     dE             d eps       ncg     rms          rms(c)
DAV:   1    -0.138053063281E+03    0.20595E-02   -0.22765E+00  1992   0.305E+00    0.183E-01
DAV:   2    -0.138058148558E+03   -0.50853E-02   -0.53484E-02  2917   0.859E-01    0.162E-01
DAV:   3    -0.138058055644E+03    0.92914E-04   -0.21105E-03  2264   0.578E-01    0.118E-01
DAV:   4    -0.138058019821E+03    0.35823E-04   -0.45668E-04  2229   0.526E-01    0.925E-02
DAV:   5    -0.138058055066E+03   -0.35245E-04   -0.32549E-04  3331   0.558E-01    0.437E-02
DAV:   6    -0.138057981982E+03    0.73084E-04   -0.18931E-04  3419   0.446E-01    0.218E-02
DAV:   7    -0.138057985636E+03   -0.36538E-05   -0.95755E-05  2629   0.129E-01    0.124E-02
DAV:   8    -0.138057988650E+03   -0.30145E-05   -0.32681E-05  2191   0.565E-02    0.723E-03
DAV:   9    -0.138057991633E+03   -0.29824E-05   -0.10347E-05  2182   0.332E-02    0.389E-03
DAV:  10    -0.138057993662E+03   -0.20294E-05   -0.26290E-06  1448   0.250E-02    0.190E-03
DAV:  11    -0.138057995495E+03   -0.18334E-05   -0.81621E-07  1269   0.102E-02    0.914E-04
DAV:  12    -0.138057996826E+03   -0.13302E-05   -0.30811E-07  1192   0.609E-03    0.892E-04
DAV:  13    -0.138057997769E+03   -0.94349E-06   -0.22561E-07  1174   0.426E-03
  50 F= -.13805800E+03 E0= -.13803572E+03  d E =-.555720E-02
       N       E                     dE             d eps       ncg     rms          rms(c)
DAV:   1    -0.138039602105E+03    0.18395E-01   -0.91191E+00  1992   0.611E+00    0.374E-01
DAV:   2    -0.138060781620E+03   -0.21180E-01   -0.22336E-01  2909   0.202E+00    0.351E-01
DAV:   3    -0.138060303544E+03    0.47808E-03   -0.10474E-02  2256   0.144E+00    0.240E-01
DAV:   4    -0.138060108394E+03    0.19515E-03   -0.19058E-03  2237   0.101E+00    0.190E-01
DAV:   5    -0.138060181013E+03   -0.72619E-04   -0.15302E-03  2827   0.121E+00    0.107E-01
DAV:   6    -0.138059821189E+03    0.35982E-03   -0.93148E-04  2691   0.994E-01    0.377E-02
DAV:   7    -0.138059869953E+03   -0.48763E-04   -0.65353E-04  2700   0.258E-01    0.254E-02
DAV:   8    -0.138059879479E+03   -0.95261E-05   -0.15129E-04  2183   0.108E-01    0.170E-02
DAV:   9    -0.138059885708E+03   -0.62298E-05   -0.48405E-05  2206   0.753E-02    0.938E-03
DAV:  10    -0.138059891281E+03   -0.55730E-05   -0.12410E-05  2184   0.541E-02    0.395E-03
DAV:  11    -0.138059896140E+03   -0.48584E-05   -0.30006E-06  1615   0.244E-02    0.220E-03
DAV:  12    -0.138059900107E+03   -0.39668E-05   -0.13244E-06  1224   0.156E-02    0.179E-03
DAV:  13    -0.138059902936E+03   -0.28297E-05   -0.70977E-07  1206   0.818E-03    0.746E-04
DAV:  14    -0.138059907235E+03   -0.42985E-05   -0.65515E-07  1262   0.464E-03    0.877E-04
DAV:  15    -0.138059909465E+03   -0.22297E-05   -0.37236E-07  1208   0.447E-03    0.629E-04
DAV:  16    -0.138059911871E+03   -0.24062E-05   -0.25870E-07  1213   0.379E-03    0.514E-04
DAV:  17    -0.138059914174E+03   -0.23037E-05   -0.27830E-07  1223   0.226E-03    0.313E-04
DAV:  18    -0.138059915422E+03   -0.12479E-05   -0.14856E-07  1192   0.225E-03    0.354E-04
DAV:  19    -0.138059916101E+03   -0.67829E-06   -0.90546E-08  1182   0.187E-03
  51 F= -.13805992E+03 E0= -.13803739E+03  d E =-.747553E-02
       N       E                     dE             d eps       ncg     rms          rms(c)
DAV:   1    -0.138059807882E+03    0.10754E-03   -0.62496E-01  2002   0.158E+00    0.109E-01
DAV:   2    -0.138061319821E+03   -0.15119E-02   -0.15868E-02  2892   0.450E-01    0.871E-02
DAV:   3    -0.138061298631E+03    0.21190E-04   -0.68750E-04  2204   0.376E-01    0.657E-02
DAV:   4    -0.138061278962E+03    0.19668E-04   -0.18419E-04  2254   0.354E-01    0.481E-02
DAV:   5    -0.138061278228E+03    0.73412E-06   -0.13594E-04  3164   0.332E-01    0.292E-02
DAV:   6    -0.138061257033E+03    0.21196E-04   -0.66981E-05  3045   0.242E-01    0.115E-02
DAV:   7    -0.138061258598E+03   -0.15656E-05   -0.29785E-05  2695   0.547E-02    0.541E-03
DAV:   8    -0.138061258969E+03   -0.37043E-06   -0.56207E-06  1919   0.261E-02
  52 F= -.13806126E+03 E0= -.13803872E+03  d E =-.134287E-02
       N       E                     dE             d eps       ncg     rms          rms(c)
DAV:   1    -0.138061232413E+03    0.26185E-04   -0.97697E-02  2002   0.626E-01    0.436E-02
DAV:   2    -0.138061478133E+03   -0.24572E-03   -0.25605E-03  2916   0.186E-01    0.357E-02
DAV:   3    -0.138061472913E+03    0.52191E-05   -0.98524E-05  2188   0.168E-01    0.266E-02
DAV:   4    -0.138061470489E+03    0.24242E-05   -0.30790E-05  2236   0.153E-01    0.196E-02
DAV:   5    -0.138061469900E+03    0.58924E-06   -0.23735E-05  3158   0.134E-01    0.115E-02
DAV:   6    -0.138061467243E+03    0.26569E-05   -0.10623E-05  2356   0.913E-02    0.427E-03
DAV:   7    -0.138061468041E+03   -0.79750E-06   -0.58067E-06  2022   0.197E-02
  53 F= -.13806147E+03 E0= -.13803893E+03  d E =-.155194E-02
       N       E                     dE             d eps       ncg     rms          rms(c)
DAV:   1    -0.138060413016E+03    0.10542E-02   -0.39048E-01  2000   0.125E+00    0.866E-02
DAV:   2    -0.138061376141E+03   -0.96312E-03   -0.10079E-02  2898   0.353E-01    0.695E-02
DAV:   3    -0.138061357953E+03    0.18187E-04   -0.39211E-04  2194   0.290E-01    0.521E-02
DAV:   4    -0.138061347216E+03    0.10737E-04   -0.11818E-04  2259   0.285E-01    0.385E-02
DAV:   5    -0.138061343493E+03    0.37229E-05   -0.84244E-05  3219   0.261E-01    0.222E-02
DAV:   6    -0.138061331980E+03    0.11513E-04   -0.40659E-05  3116   0.188E-01    0.914E-03
DAV:   7    -0.138061333019E+03   -0.10387E-05   -0.17363E-05  2678   0.443E-02    0.429E-03
DAV:   8    -0.138061333435E+03   -0.41618E-06   -0.33840E-06  1655   0.194E-02
  54 F= -.13806133E+03 E0= -.13803878E+03  d E =-.141733E-02
       N       E                     dE             d eps       ncg     rms          rms(c)
DAV:   1    -0.138061012237E+03    0.32078E-03   -0.21715E-01  2001   0.932E-01    0.638E-02
DAV:   2    -0.138061536163E+03   -0.52393E-03   -0.55296E-03  2918   0.241E-01    0.506E-02
DAV:   3    -0.138061520985E+03    0.15178E-04   -0.15058E-04  2237   0.154E-01    0.372E-02
DAV:   4    -0.138061515039E+03    0.59460E-05   -0.64862E-05  2230   0.182E-01    0.284E-02
DAV:   5    -0.138061507894E+03    0.71448E-05   -0.40392E-05  3340   0.137E-01    0.111E-02
DAV:   6    -0.138061506561E+03    0.13337E-05   -0.14000E-05  2520   0.112E-01    0.724E-03
DAV:   7    -0.138061505856E+03    0.70484E-06   -0.59500E-06  2141   0.485E-02
  55 F= -.13806151E+03 E0= -.13803896E+03  d E =-.158976E-02
       N       E                     dE             d eps       ncg     rms          rms(c)
DAV:   1    -0.138061820777E+03   -0.31422E-03   -0.97163E-03  2029   0.208E-01    0.122E-02
DAV:   2    -0.138061843482E+03   -0.22705E-04   -0.23544E-04  2901   0.560E-02    0.104E-02
DAV:   3    -0.138061843237E+03    0.24546E-06   -0.96751E-06  2184   0.372E-02
  56 F= -.13806184E+03 E0= -.13803931E+03  d E =-.337381E-03
       N       E                     dE             d eps       ncg     rms          rms(c)
DAV:   1    -0.138062504584E+03   -0.66110E-03   -0.87547E-02  2002   0.625E-01    0.407E-02
DAV:   2    -0.138062705383E+03   -0.20080E-03   -0.21490E-03  2902   0.187E-01    0.360E-02
DAV:   3    -0.138062698186E+03    0.71967E-05   -0.98596E-05  2189   0.156E-01    0.263E-02
DAV:   4    -0.138062694772E+03    0.34146E-05   -0.27137E-05  2272   0.113E-01    0.179E-02
DAV:   5    -0.138062695827E+03   -0.10548E-05   -0.21031E-05  2940   0.131E-01    0.112E-02
DAV:   6    -0.138062692552E+03    0.32745E-05   -0.10103E-05  2325   0.108E-01    0.346E-03
DAV:   7    -0.138062692873E+03   -0.32032E-06   -0.39980E-06  1614   0.265E-02
  57 F= -.13806269E+03 E0= -.13804019E+03  d E =-.118702E-02
       N       E                     dE             d eps       ncg     rms          rms(c)
DAV:   1    -0.138062919033E+03   -0.22648E-03   -0.35018E-01  2001   0.125E+00    0.765E-02
DAV:   2    -0.138063709431E+03   -0.79040E-03   -0.83495E-03  2901   0.378E-01    0.644E-02
DAV:   3    -0.138063699061E+03    0.10371E-04   -0.46380E-04  2172   0.334E-01    0.495E-02
DAV:   4    -0.138063683732E+03    0.15328E-04   -0.10481E-04  2212   0.241E-01    0.334E-02
DAV:   5    -0.138063686130E+03   -0.23973E-05   -0.71761E-05  3068   0.232E-01    0.208E-02
DAV:   6    -0.138063675627E+03    0.10502E-04   -0.36480E-05  2549   0.195E-01    0.761E-03
DAV:   7    -0.138063676855E+03   -0.12274E-05   -0.19443E-05  2966   0.512E-02    0.402E-03
DAV:   8    -0.138063677407E+03   -0.55193E-06   -0.52023E-06  1927   0.215E-02
  58 F= -.13806368E+03 E0= -.13804122E+03  d E =-.217155E-02
       N       E                     dE             d eps       ncg     rms          rms(c)
DAV:   1    -0.138063624016E+03    0.52839E-04   -0.87543E-02  2002   0.622E-01    0.384E-02
DAV:   2    -0.138063822807E+03   -0.19879E-03   -0.20909E-03  2924   0.191E-01    0.325E-02
DAV:   3    -0.138063819792E+03    0.30155E-05   -0.11496E-04  2180   0.169E-01    0.248E-02
DAV:   4    -0.138063816610E+03    0.31816E-05   -0.26446E-05  2196   0.119E-01    0.166E-02
DAV:   5    -0.138063817632E+03   -0.10217E-05   -0.17624E-05  2917   0.116E-01    0.104E-02
DAV:   6    -0.138063815600E+03    0.20316E-05   -0.89403E-06  2204   0.999E-02    0.383E-03
DAV:   7    -0.138063816152E+03   -0.55193E-06   -0.42714E-06  1726   0.262E-02
  59 F= -.13806382E+03 E0= -.13804138E+03  d E =-.231030E-02
       N       E                     dE             d eps       ncg     rms          rms(c)
DAV:   1    -0.138063951004E+03   -0.13540E-03   -0.16725E-03  2012   0.872E-02    0.516E-03
DAV:   2    -0.138063955395E+03   -0.43911E-05   -0.39741E-05  2902   0.291E-02    0.422E-03
DAV:   3    -0.138063955559E+03   -0.16391E-06   -0.23987E-06  1456   0.279E-02
  60 F= -.13806396E+03 E0= -.13804153E+03  d E =-.139407E-03
       N       E                     dE             d eps       ncg     rms          rms(c)
DAV:   1    -0.138064325886E+03   -0.37049E-03   -0.15057E-02  1994   0.260E-01    0.153E-02
DAV:   2    -0.138064357919E+03   -0.32033E-04   -0.33324E-04  2918   0.806E-02    0.142E-02
DAV:   3    -0.138064357260E+03    0.65938E-06   -0.19146E-05  2240   0.632E-02    0.101E-02
DAV:   4    -0.138064357356E+03   -0.96741E-07   -0.35626E-06  1788   0.351E-02
  61 F= -.13806436E+03 E0= -.13804193E+03  d E =-.541204E-03
       N       E                     dE             d eps       ncg     rms          rms(c)
DAV:   1    -0.138064975474E+03   -0.61821E-03   -0.60133E-02  1994   0.520E-01    0.280E-02
DAV:   2    -0.138065097981E+03   -0.12251E-03   -0.12654E-03  2908   0.158E-01    0.241E-02
DAV:   3    -0.138065100810E+03   -0.28288E-05   -0.10483E-04  2175   0.157E-01    0.215E-02
DAV:   4    -0.138065098187E+03    0.26232E-05   -0.18559E-05  2173   0.928E-02    0.135E-02
DAV:   5    -0.138065100582E+03   -0.23955E-05   -0.15595E-05  2933   0.581E-02    0.764E-03
DAV:   6    -0.138065100128E+03    0.45431E-06   -0.57271E-06  2061   0.680E-02
[...]
DAV:   6    -0.138075560058E+03    0.29838E-05   -0.61053E-06  1523   0.751E-02    0.432E-03
DAV:   7    -0.138075560795E+03   -0.73761E-06   -0.93912E-06  2815   0.204E-02
  91 F= -.13807556E+03 E0= -.13805280E+03  d E =-.803457E-03
       N       E                     dE             d eps       ncg     rms          rms(c)
DAV:   1    -0.138074752615E+03    0.80744E-03   -0.59231E-01  1992   0.132E+00    0.975E-02
DAV:   2    -0.138076281436E+03   -0.15288E-02   -0.15788E-02  2874   0.406E-01    0.850E-02
DAV:   3    -0.138076254886E+03    0.26550E-04   -0.58655E-04  2239   0.313E-01    0.604E-02
DAV:   4    -0.138076245659E+03    0.92274E-05   -0.10532E-04  2261   0.224E-01    0.467E-02
DAV:   5    -0.138076254395E+03   -0.87362E-05   -0.81601E-05  2563   0.245E-01    0.217E-02
DAV:   6    -0.138076241060E+03    0.13335E-04   -0.48286E-05  2795   0.196E-01    0.772E-03
DAV:   7    -0.138076242850E+03   -0.17901E-05   -0.22741E-05  2983   0.419E-02    0.504E-03
DAV:   8    -0.138076242923E+03   -0.72643E-07   -0.40519E-06  1807   0.220E-02
  92 F= -.13807624E+03 E0= -.13805348E+03  d E =-.148559E-02
       N       E                     dE             d eps       ncg     rms          rms(c)
DAV:   1    -0.138071030516E+03    0.52123E-02   -0.23706E+00  1992   0.264E+00    0.194E-01
DAV:   2    -0.138077083307E+03   -0.60528E-02   -0.62464E-02  2858   0.779E-01    0.167E-01
DAV:   3    -0.138077013755E+03    0.69552E-04   -0.24957E-03  2256   0.597E-01    0.121E-01
DAV:   4    -0.138076971822E+03    0.41933E-04   -0.42623E-04  2261   0.447E-01    0.938E-02
DAV:   5    -0.138076982599E+03   -0.10777E-04   -0.29934E-04  2620   0.433E-01    0.379E-02
DAV:   6    -0.138076946334E+03    0.36265E-04   -0.17999E-04  2835   0.359E-01    0.173E-02
DAV:   7    -0.138076951284E+03   -0.49500E-05   -0.79385E-05  3032   0.942E-02    0.104E-02
DAV:   8    -0.138076951861E+03   -0.57684E-06   -0.17414E-05  2184   0.406E-02    0.709E-03
DAV:   9    -0.138076952166E+03   -0.30483E-06   -0.65070E-06  2086   0.332E-02
  93 F= -.13807695E+03 E0= -.13805418E+03  d E =-.219483E-02
       N       E                     dE             d eps       ncg     rms          rms(c)
DAV:   1    -0.138076871592E+03    0.80268E-04   -0.11665E-01  1992   0.504E-01    0.560E-02
DAV:   2    -0.138077203180E+03   -0.33159E-03   -0.35721E-03  2853   0.164E-01    0.466E-02
DAV:   3    -0.138077188019E+03    0.15161E-04   -0.11965E-04  2222   0.141E-01    0.342E-02
DAV:   4    -0.138077185215E+03    0.28036E-05   -0.44867E-05  2248   0.154E-01    0.245E-02
DAV:   5    -0.138077182017E+03    0.31982E-05   -0.31539E-05  2484   0.163E-01    0.121E-02
DAV:   6    -0.138077180180E+03    0.18369E-05   -0.14256E-05  2423   0.120E-01    0.500E-03
DAV:   7    -0.138077179905E+03    0.27509E-06   -0.26697E-06  1486   0.406E-02
  94 F= -.13807718E+03 E0= -.13805437E+03  d E =-.227739E-03
       N       E                     dE             d eps       ncg     rms          rms(c)
DAV:   1    -0.138077180681E+03   -0.50070E-06   -0.46889E-06  1824   0.150E-02    0.214E-03
DAV:   2    -0.138077181146E+03   -0.46537E-06   -0.16691E-06  1174   0.220E-02
  95 F= -.13807718E+03 E0= -.13805438E+03  d E =-.228981E-03
       N       E                     dE             d eps       ncg     rms          rms(c)
DAV:   1    -0.138077285385E+03   -0.10470E-03   -0.31018E-02  1994   0.266E-01    0.239E-02
DAV:   2    -0.138077365223E+03   -0.79839E-04   -0.82417E-04  2894   0.819E-02    0.190E-02
DAV:   3    -0.138077364062E+03    0.11615E-05   -0.26181E-05  2221   0.639E-02    0.136E-02
DAV:   4    -0.138077364485E+03   -0.42381E-06   -0.67218E-06  2197   0.603E-02
  96 F= -.13807736E+03 E0= -.13805456E+03  d E =-.183339E-03
       N       E                     dE             d eps       ncg     rms          rms(c)
DAV:   1    -0.138077179669E+03    0.18439E-03   -0.27861E-01  1992   0.801E-01    0.720E-02
DAV:   2    -0.138077885488E+03   -0.70582E-03   -0.73057E-03  2850   0.212E-01    0.559E-02
DAV:   3    -0.138077873449E+03    0.12039E-04   -0.21122E-04  2246   0.153E-01    0.404E-02
DAV:   4    -0.138077876057E+03   -0.26079E-05   -0.60241E-05  2294   0.187E-01    0.320E-02
DAV:   5    -0.138077872833E+03    0.32240E-05   -0.36843E-05  2364   0.148E-01    0.692E-03
DAV:   6    -0.138077873826E+03   -0.99360E-06   -0.17270E-05  2764   0.944E-02    0.598E-03
DAV:   7    -0.138077873386E+03    0.44022E-06   -0.32922E-06  1613   0.500E-02
  97 F= -.13807787E+03 E0= -.13805504E+03  d E =-.692240E-03
       N       E                     dE             d eps       ncg     rms          rms(c)
DAV:   1    -0.138075990094E+03    0.18837E-02   -0.11187E+00  1992   0.160E+00    0.143E-01
DAV:   2    -0.138078796815E+03   -0.28067E-02   -0.29022E-02  2828   0.435E-01    0.110E-01
DAV:   3    -0.138078770430E+03    0.26385E-04   -0.95768E-04  2309   0.322E-01    0.812E-02
DAV:   4    -0.138078778447E+03   -0.80176E-05   -0.25322E-04  2244   0.403E-01    0.648E-02
DAV:   5    -0.138078777057E+03    0.13901E-05   -0.15364E-04  2346   0.398E-01    0.278E-02
DAV:   6    -0.138078756927E+03    0.20131E-04   -0.74745E-05  2706   0.239E-01    0.107E-02
DAV:   7    -0.138078760280E+03   -0.33533E-05   -0.37588E-05  2816   0.554E-02    0.718E-03
DAV:   8    -0.138078760569E+03   -0.28906E-06   -0.62175E-06  2086   0.339E-02
  98 F= -.13807876E+03 E0= -.13805589E+03  d E =-.157942E-02
       N       E                     dE             d eps       ncg     rms          rms(c)
DAV:   1    -0.138068446915E+03    0.10313E-01   -0.44725E+00  1992   0.320E+00    0.293E-01
DAV:   2    -0.138080070165E+03   -0.11623E-01   -0.12006E-01  2845   0.903E-01    0.224E-01
DAV:   3    -0.138079982199E+03    0.87965E-04   -0.41432E-03  2344   0.688E-01    0.166E-01
DAV:   4    -0.138079965280E+03    0.16919E-04   -0.10129E-03  2269   0.766E-01    0.131E-01
DAV:   5    -0.138079932701E+03    0.32579E-04   -0.61480E-04  2346   0.718E-01    0.551E-02
DAV:   6    -0.138079872118E+03    0.60583E-04   -0.32181E-04  2642   0.475E-01    0.212E-02
DAV:   7    -0.138079882724E+03   -0.10606E-04   -0.13840E-04  2887   0.125E-01    0.142E-02
DAV:   8    -0.138079884177E+03   -0.14531E-05   -0.30159E-05  2224   0.681E-02    0.997E-03
DAV:   9    -0.138079884549E+03   -0.37154E-06   -0.91599E-06  2134   0.388E-02
  99 F= -.13807988E+03 E0= -.13805693E+03  d E =-.270340E-02
       N       E                     dE             d eps       ncg     rms          rms(c)
DAV:   1    -0.138033733883E+03    0.46150E-01   -0.17896E+01  1992   0.640E+00    0.595E-01
DAV:   2    -0.138081115242E+03   -0.47381E-01   -0.48933E-01  2885   0.188E+00    0.459E-01
DAV:   3    -0.138080435730E+03    0.67951E-03   -0.14882E-02  2320   0.146E+00    0.335E-01
DAV:   4    -0.138080337393E+03    0.98337E-04   -0.39874E-03  2276   0.161E+00    0.266E-01
DAV:   5    -0.138080164012E+03    0.17338E-03   -0.28028E-03  2346   0.166E+00    0.131E-01
DAV:   6    -0.138079795525E+03    0.36849E-03   -0.14463E-03  2682   0.110E+00    0.388E-02
DAV:   7    -0.138079841154E+03   -0.45629E-04   -0.61507E-04  3040   0.254E-01    0.275E-02
DAV:   8    -0.138079847439E+03   -0.62851E-05   -0.14221E-04  2232   0.142E-01    0.194E-02
DAV:   9    -0.138079848495E+03   -0.10554E-05   -0.41882E-05  2198   0.828E-02    0.980E-03
DAV:  10    -0.138079851069E+03   -0.25746E-05   -0.76330E-06  2365   0.345E-02    0.335E-03
DAV:  11    -0.138079853309E+03   -0.22394E-05   -0.45201E-06  2016   0.208E-02    0.295E-03
DAV:  12    -0.138079854428E+03   -0.11192E-05   -0.19643E-06  1207   0.174E-02    0.181E-03
DAV:  13    -0.138079855213E+03   -0.78510E-06   -0.29279E-07  1183   0.492E-03
 100 F= -.13807986E+03 E0= -.13805672E+03  d E =-.267407E-02
       N       E                     dE             d eps       ncg     rms          rms(c)
DAV:   1    -0.138067070898E+03    0.12784E-01   -0.52632E+00  1992   0.347E+00    0.303E-01
DAV:   2    -0.138080513345E+03   -0.13442E-01   -0.13864E-01  2788   0.874E-01    0.236E-01
DAV:   3    -0.138080372155E+03    0.14119E-03   -0.39700E-03  2343   0.508E-01    0.175E-01
DAV:   4    -0.138080384091E+03   -0.11936E-04   -0.13534E-03  2295   0.801E-01    0.137E-01
DAV:   5    -0.138080230045E+03    0.15405E-03   -0.70626E-04  2421   0.558E-01    0.278E-02
DAV:   6    -0.138080256743E+03   -0.26698E-04   -0.25654E-04  3248   0.220E-01    0.240E-02
DAV:   7    -0.138080252341E+03    0.44026E-05   -0.53242E-05  2565   0.183E-01    0.151E-02
DAV:   8    -0.138080251349E+03    0.99163E-06   -0.19735E-05  2349   0.889E-02    0.996E-03
DAV:   9    -0.138080251167E+03    0.18190E-06   -0.99217E-06  2199   0.431E-02
 101 F= -.13808025E+03 E0= -.13805721E+03  d E =-.307002E-02
       N       E                     dE             d eps       ncg     rms          rms(c)
DAV:   1    -0.138080427114E+03   -0.17576E-03   -0.44274E-02  1994   0.316E-01    0.288E-02
DAV:   2    -0.138080542409E+03   -0.11530E-03   -0.11897E-03  2844   0.862E-02    0.231E-02
DAV:   3    -0.138080540367E+03    0.20427E-05   -0.32707E-05  2255   0.608E-02    0.168E-02
DAV:   4    -0.138080540724E+03   -0.35774E-06   -0.11024E-05  2292   0.804E-02    0.134E-02
DAV:   5    -0.138080539379E+03    0.13457E-05   -0.70475E-06  2109   0.649E-02    0.383E-03
DAV:   6    -0.138080539568E+03   -0.18883E-06   -0.28978E-06  1365   0.410E-02
 102 F= -.13808054E+03 E0= -.13805750E+03  d E =-.288400E-03
       N       E                     dE             d eps       ncg     rms          rms(c)
DAV:   1    -0.138080209284E+03    0.33009E-03   -0.39937E-01  1992   0.946E-01    0.878E-02
DAV:   2    -0.138081245054E+03   -0.10358E-02   -0.10721E-02  2828   0.249E-01    0.682E-02
DAV:   3    -0.138081229110E+03    0.15944E-04   -0.32664E-04  2326   0.174E-01    0.499E-02
DAV:   4    -0.138081228474E+03    0.63539E-06   -0.10156E-04  2293   0.227E-01    0.387E-02
DAV:   5    -0.138081218721E+03    0.97537E-05   -0.56654E-05  2383   0.180E-01    0.946E-03
DAV:   6    -0.138081219506E+03   -0.78557E-06   -0.24312E-05  2957   0.109E-01    0.786E-03
DAV:   7    -0.138081218961E+03    0.54535E-06   -0.81730E-06  2374   0.637E-02
 103 F= -.13808122E+03 E0= -.13805817E+03  d E =-.967794E-03
       N       E                     dE             d eps       ncg     rms          rms(c)
DAV:   1    -0.138077713811E+03    0.35057E-02   -0.15991E+00  1992   0.189E+00    0.175E-01
DAV:   2    -0.138081842977E+03   -0.41292E-02   -0.42705E-02  2802   0.472E-01    0.134E-01
DAV:   3    -0.138081785603E+03    0.57374E-04   -0.12548E-03  2310   0.297E-01    0.991E-02
DAV:   4    -0.138081796487E+03   -0.10884E-04   -0.46074E-04  2271   0.487E-01    0.785E-02
DAV:   5    -0.138081744212E+03    0.52275E-04   -0.25482E-04  2348   0.412E-01    0.270E-02
DAV:   6    -0.138081742328E+03    0.18837E-05   -0.98174E-05  2668   0.247E-01    0.153E-02
DAV:   7    -0.138081741471E+03    0.85693E-06   -0.36378E-05  3445   0.108E-01    0.883E-03
DAV:   8    -0.138081742149E+03   -0.67748E-06   -0.12481E-05  2256   0.382E-02    0.553E-03
DAV:   9    -0.138081743095E+03   -0.94692E-06   -0.50747E-06  2038   0.285E-02
 104 F= -.13808174E+03 E0= -.13805867E+03  d E =-.149193E-02
       N       E                     dE             d eps       ncg     rms          rms(c)
DAV:   1    -0.138081731915E+03    0.10234E-04   -0.54670E-03  2004   0.113E-01    0.102E-02
DAV:   2    -0.138081747211E+03   -0.15296E-04   -0.15273E-04  2871   0.388E-02    0.873E-03
DAV:   3    -0.138081746982E+03    0.22911E-06   -0.45153E-06  1525   0.311E-02
 105 F= -.13808175E+03 E0= -.13805867E+03  d E =-.149581E-02
       N       E                     dE             d eps       ncg     rms          rms(c)
DAV:   1    -0.138081745878E+03    0.13330E-05   -0.55255E-04  2612   0.449E-02    0.616E-03
DAV:   2    -0.138081747279E+03   -0.14010E-05   -0.13594E-05  1814   0.312E-02    0.508E-03
DAV:   3    -0.138081747393E+03   -0.11438E-06   -0.14546E-06  1367   0.269E-02
 106 F= -.13808175E+03 E0= -.13805867E+03  d E =-.149623E-02
       N       E                     dE             d eps       ncg     rms          rms(c)
DAV:   1    -0.138081778463E+03   -0.31184E-04   -0.90971E-04  2195   0.591E-02    0.376E-03
DAV:   2    -0.138081781211E+03   -0.27482E-05   -0.24656E-05  2189   0.339E-02    0.346E-03
DAV:   3    -0.138081781185E+03    0.25611E-07   -0.24283E-06  1568   0.307E-02
 107 F= -.13808178E+03 E0= -.13805871E+03  d E =-.337922E-04
       N       E                     dE             d eps       ncg     rms          rms(c)
DAV:   1    -0.138081857243E+03   -0.76032E-04   -0.80447E-03  1994   0.159E-01    0.117E-02
DAV:   2    -0.138081878038E+03   -0.20796E-04   -0.21705E-04  2877   0.436E-02    0.102E-02
DAV:   3    -0.138081877698E+03    0.34069E-06   -0.60413E-06  1488   0.296E-02
 108 F= -.13808188E+03 E0= -.13805880E+03  d E =-.130304E-03
       N       E                     dE             d eps       ncg     rms          rms(c)
DAV:   1    -0.138081978063E+03   -0.10002E-03   -0.32125E-02  1994   0.321E-01    0.236E-02
DAV:   2    -0.138082056755E+03   -0.78692E-04   -0.82222E-04  2766   0.907E-02    0.200E-02
DAV:   3    -0.138082057301E+03   -0.54622E-06   -0.41411E-05  2220   0.885E-02    0.165E-02
DAV:   4    -0.138082057284E+03    0.16997E-07   -0.11221E-05  2213   0.100E-01    0.127E-02
DAV:   5    -0.138082056096E+03    0.11883E-05   -0.36262E-06  1388   0.488E-02    0.387E-03
DAV:   6    -0.138082056299E+03   -0.20291E-06   -0.32737E-06  1504   0.223E-02
 109 F= -.13808206E+03 E0= -.13805898E+03  d E =-.308906E-03
       N       E                     dE             d eps       ncg     rms          rms(c)
DAV:   1    -0.138082036122E+03    0.19974E-04   -0.12874E-01  1993   0.633E-01    0.446E-02
DAV:   2    -0.138082360649E+03   -0.32453E-03   -0.33539E-03  2860   0.186E-01    0.372E-02
DAV:   3    -0.138082356979E+03    0.36700E-05   -0.11625E-04  2198   0.150E-01    0.273E-02
DAV:   4    -0.138082356351E+03    0.62858E-06   -0.23048E-05  2260   0.145E-01    0.219E-02
DAV:   5    -0.138082357356E+03   -0.10057E-05   -0.18712E-05  2267   0.150E-01    0.117E-02
DAV:   6    -0.138082353152E+03    0.42046E-05   -0.10258E-05  2292   0.915E-02    0.346E-03
DAV:   7    -0.138082353882E+03   -0.73027E-06   -0.68153E-06  2160   0.137E-02
 110 F= -.13808235E+03 E0= -.13805927E+03  d E =-.606489E-03
       N       E                     dE             d eps       ncg     rms          rms(c)
DAV:   1    -0.138081481397E+03    0.87175E-03   -0.51495E-01  1992   0.126E+00    0.883E-02
DAV:   2    -0.138082761228E+03   -0.12798E-02   -0.13233E-02  2858   0.330E-01    0.712E-02
DAV:   3    -0.138082744125E+03    0.17104E-04   -0.37737E-04  2287   0.196E-01    0.533E-02
DAV:   4    -0.138082744820E+03   -0.69517E-06   -0.10499E-04  2309   0.242E-01    0.427E-02
DAV:   5    -0.138082735985E+03    0.88353E-05   -0.56167E-05  2515   0.187E-01    0.127E-02
DAV:   6    -0.138082735570E+03    0.41450E-06   -0.31578E-05  2859   0.132E-01    0.843E-03
DAV:   7    -0.138082735510E+03    0.60303E-07   -0.12998E-05  2759   0.532E-02    0.440E-03
DAV:   8    -0.138082735759E+03   -0.24907E-06   -0.29653E-06  1399   0.200E-02
 111 F= -.13808274E+03 E0= -.13805964E+03  d E =-.988366E-03
       N       E                     dE             d eps       ncg     rms          rms(c)
DAV:   1    -0.138077551192E+03    0.51843E-02   -0.20590E+00  1992   0.253E+00    0.178E-01
DAV:   2    -0.138082685033E+03   -0.51338E-02   -0.53247E-02  2858   0.673E-01    0.145E-01
DAV:   3    -0.138082610321E+03    0.74712E-04   -0.16162E-03  2304   0.438E-01    0.108E-01
DAV:   4    -0.138082595413E+03    0.14908E-04   -0.40576E-04  2277   0.462E-01    0.854E-02
DAV:   5    -0.138082564940E+03    0.30473E-04   -0.23263E-04  3012   0.266E-01    0.158E-02
DAV:   6    -0.138082580143E+03   -0.15203E-04   -0.11173E-04  3338   0.155E-01    0.157E-02
DAV:   7    -0.138082576637E+03    0.35058E-05   -0.27983E-05  2766   0.118E-01    0.869E-03
DAV:   8    -0.138082577564E+03   -0.92672E-06   -0.85497E-06  2110   0.327E-02
 112 F= -.13808258E+03 E0= -.13805946E+03  d E =-.830170E-03
       N       E                     dE             d eps       ncg     rms          rms(c)
DAV:   1    -0.138080751198E+03    0.18254E-02   -0.86683E-01  1992   0.164E+00    0.112E-01
DAV:   2    -0.138082873757E+03   -0.21226E-02   -0.21967E-02  2860   0.434E-01    0.938E-02
DAV:   3    -0.138082845545E+03    0.28212E-04   -0.63542E-04  2279   0.269E-01    0.699E-02
DAV:   4    -0.138082847304E+03   -0.17584E-05   -0.16582E-04  2263   0.330E-01    0.564E-02
DAV:   5    -0.138082841189E+03    0.61142E-05   -0.11022E-04  2332   0.329E-01    0.229E-02
DAV:   6    -0.138082826513E+03    0.14676E-04   -0.61416E-05  3061   0.207E-01    0.929E-03
DAV:   7    -0.138082828574E+03   -0.20602E-05   -0.30321E-05  2928   0.467E-02    0.601E-03
DAV:   8    -0.138082828529E+03    0.44587E-07   -0.36480E-06  1734   0.270E-02
 113 F= -.13808283E+03 E0= -.13805973E+03  d E =-.108114E-02
       N       E                     dE             d eps       ncg     rms          rms(c)
DAV:   1    -0.138082871638E+03   -0.43065E-04   -0.19477E-03  2013   0.806E-02    0.522E-03
DAV:   2    -0.138082876694E+03   -0.50562E-05   -0.53261E-05  2918   0.260E-02    0.550E-03
DAV:   3    -0.138082876581E+03    0.11368E-06   -0.15258E-06  1264   0.195E-02
 114 F= -.13808288E+03 E0= -.13805978E+03  d E =-.480517E-04
       N       E                     dE             d eps       ncg     rms          rms(c)
DAV:   1    -0.138082964189E+03   -0.87495E-04   -0.17622E-02  1994   0.236E-01    0.175E-02
DAV:   2    -0.138083008824E+03   -0.44635E-04   -0.46977E-04  2884   0.635E-02    0.158E-02
DAV:   3    -0.138083007973E+03    0.85111E-06   -0.14053E-05  2198   0.413E-02    0.120E-02
DAV:   4    -0.138083007575E+03    0.39750E-06   -0.44993E-06  2040   0.437E-02
 115 F= -.13808301E+03 E0= -.13805991E+03  d E =-.179046E-03
       N       E                     dE             d eps       ncg     rms          rms(c)
DAV:   1    -0.138083047631E+03   -0.39659E-04   -0.70225E-02  1993   0.470E-01    0.334E-02
DAV:   2    -0.138083226101E+03   -0.17847E-03   -0.18513E-03  2868   0.119E-01    0.276E-02
DAV:   3    -0.138083223270E+03    0.28316E-05   -0.43390E-05  2309   0.490E-02    0.205E-02
DAV:   4    -0.138083222835E+03    0.43475E-06   -0.15948E-05  2248   0.817E-02    0.154E-02
DAV:   5    -0.138083220592E+03    0.22429E-05   -0.10847E-05  2293   0.741E-02    0.466E-03
DAV:   6    -0.138083220850E+03   -0.25838E-06   -0.34062E-06  1550   0.389E-02
 116 F= -.13808322E+03 E0= -.13806013E+03  d E =-.392321E-03
       N       E                     dE             d eps       ncg     rms          rms(c)
DAV:   1    -0.138082756500E+03    0.46409E-03   -0.28221E-01  1992   0.941E-01    0.680E-02
DAV:   2    -0.138083487459E+03   -0.73096E-03   -0.75976E-03  2868   0.267E-01    0.594E-02
DAV:   3    -0.138083472703E+03    0.14755E-04   -0.26322E-04  2189   0.183E-01    0.435E-02
DAV:   4    -0.138083466249E+03    0.64544E-05   -0.51742E-05  2302   0.145E-01    0.328E-02
DAV:   5    -0.138083460813E+03    0.54360E-05   -0.34475E-05  2727   0.103E-01    0.718E-03
DAV:   6    -0.138083462427E+03   -0.16142E-05   -0.17256E-05  2668   0.805E-02    0.675E-03
DAV:   7    -0.138083461666E+03    0.76101E-06   -0.55809E-06  2085   0.625E-02
 117 F= -.13808346E+03 E0= -.13806038E+03  d E =-.633137E-03
       N       E                     dE             d eps       ncg     rms          rms(c)
DAV:   1    -0.138083350443E+03    0.11198E-03   -0.52176E-02  1993   0.405E-01    0.298E-02
DAV:   2    -0.138083489876E+03   -0.13943E-03   -0.14455E-03  2892   0.113E-01    0.253E-02
DAV:   3    -0.138083487237E+03    0.26394E-05   -0.40327E-05  2189   0.715E-02    0.182E-02
DAV:   4    -0.138083486303E+03    0.93324E-06   -0.90643E-06  2238   0.706E-02
 118 F= -.13808349E+03 E0= -.13806042E+03  d E =-.657774E-03
