PROCAR lm decomposed
# of k-points:    4         # of bands:  249         # of ions:   40

 k-point     1 :    0.00000000 0.00000000 0.00000000     weight = 0.11111111

band     1 # energy  -25.21410537 # occ.  2.00000000
 
ion      s     py     pz     px    dxy    dyz    dz2    dxz  x2-y2    tot
    1  0.000  0.000  0.000  0.000  0.000  0.000  0.000  0.000  0.000  0.000
    2  0.000  0.000  0.000  0.000  0.000  0.000  0.000  0.000  0.000  0.000
    3  0.000  0.000  0.000  0.000  0.000  0.000  0.000  0.000  0.000  0.000
    4  0.000  0.000  0.000  0.000  0.000  0.000  0.000  0.000  0.000  0.000
    5  0.000  0.000  0.000  0.000  0.000  0.000  0.000  0.000  0.000  0.000
    6  0.000  0.000  0.000  0.000  0.000  0.000  0.000  0.000  0.000  0.000
    7  0.000  0.000  0.000  0.000  0.000  0.000  0.000  0.000  0.000  0.000
    8  0.000  0.000  0.000  0.000  0.000  0.000  0.000  0.000  0.000  0.000
    9  0.000  0.000  0.000  0.000  0.000  0.000  0.000  0.000  0.000  0.000
   10  0.000  0.000  0.000  0.000  0.000  0.000  0.000  0.000  0.000  0.000
   11  0.000  0.000  0.000  0.000  0.000  0.000  0.000  0.000  0.000  0.000
   12  0.000  0.000  0.000  0.000  0.000  0.000  0.000  0.000  0.000  0.000
   13  0.000  0.000  0.000  0.000  0.000  0.000  0.000  0.000  0.000  0.000
   14  0.000  0.000  0.000  0.000  0.000  0.000  0.000  0.000  0.000  0.000
   15  0.000  0.000  0.000  0.000  0.000  0.000  0.000  0.000  0.000  0.000
   16  0.000  0.000  0.000  0.000  0.000  0.000  0.000  0.000  0.000  0.000
   17  0.000  0.000  0.000  0.000  0.000  0.000  0.000  0.000  0.000  0.000
   18  0.000  0.000  0.000  0.000  0.000  0.000  0.000  0.000  0.000  0.000
   19  0.000  0.000  0.000  0.000  0.000  0.000  0.000  0.000  0.000  0.000
   20  0.000  0.000  0.000  0.000  0.000  0.000  0.000  0.000  0.000  0.000
   21  0.000  0.000  0.000  0.000  0.000  0.000  0.000  0.000  0.000  0.000
   22  0.000  0.000  0.000  0.000  0.000  0.000  0.000  0.000  0.000  0.000
   23  0.000  0.000  0.000  0.000  0.000  0.000  0.000  0.000  0.000  0.000
   24  0.000  0.000  0.000  0.000  0.000  0.000  0.000  0.000  0.000  0.000
   25  0.000  0.000  0.000  0.000  0.000  0.000  0.000  0.000  0.000  0.000
   26  0.000  0.000  0.000  0.000  0.000  0.000  0.000  0.000  0.000  0.000
   27  0.000  0.000  0.000  0.000  0.000  0.000  0.000  0.000  0.000  0.000
   28  0.000  0.000  0.000  0.000  0.000  0.000  0.000  0.000  0.000  0.000
   29  0.000  0.000  0.000  0.000  0.000  0.000  0.000  0.000  0.000  0.000
   30  0.000  0.000  0.000  0.000  0.000  0.000  0.000  0.000  0.000  0.000
   31  0.000  0.000  0.000  0.000  0.000  0.000  0.000  0.000  0.000  0.000
   32  0.000  0.000  0.000  0.000  0.000  0.000  0.000  0.000  0.000  0.000
   33  0.000  0.000  0.000  0.000  0.000  0.000  0.000  0.000  0.000  0.000
   34  0.000  0.000  0.000  0.000  0.000  0.000  0.000  0.000  0.000  0.000
   35  0.000  0.000  0.000  0.000  0.000  0.000  0.000  0.000  0.000  0.000
   36  0.000  0.000  0.000  0.000  0.000  0.000  0.000  0.000  0.000  0.000
   37  0.078  0.001  0.053  0.000  0.000  0.000  0.000  0.000  0.000  0.132
   38  0.319  0.001  0.043  0.000  0.000  0.000  0.000  0.000  0.000  0.364
   39  0.078  0.002  0.053  0.000  0.000  0.000  0.000  0.000  0.000  0.133
   40  0.323  0.001  0.044  0.000  0.000  0.000  0.000  0.000  0.000  0.368
tot    0.798  0.005  0.193  0.000  0.000  0.000  0.000  0.000  0.000  0.997
 
band     2 # energy  -25.19331906 # occ.  2.00000000
 
ion      s     py     pz     px    dxy    dyz    dz2    dxz  x2-y2    tot
    1  0.000  0.000  0.000  0.000  0.000  0.000  0.000  0.000  0.000  0.000
    2  0.000  0.000  0.000  0.000  0.000  0.000  0.000  0.000  0.000  0.000
    3  0.000  0.000  0.000  0.000  0.000  0.000  0.000  0.000  0.000  0.000
    4  0.000  0.000  0.000  0.000  0.000  0.000  0.000  0.000  0.000  0.000
    5  0.000  0.000  0.000  0.000  0.000  0.000  0.000  0.000  0.000  0.000
    6  0.000  0.000  0.000  0.000  0.000  0.000  0.000  0.000  0.000  0.000
    7  0.000  0.000  0.000  0.000  0.000  0.000  0.000  0.000  0.000  0.000
    8  0.000  0.000  0.000  0.000  0.000  0.000  0.000  0.000  0.000  0.000
    9  0.000  0.000  0.000  0.000  0.000  0.000  0.000  0.000  0.000  0.000
   10  0.000  0.000  0.000  0.000  0.000  0.000  0.000  0.000  0.000  0.000
   11  0.000  0.000  0.000  0.000  0.000  0.000  0.000  0.000  0.000  0.000
   12  0.000  0.000  0.000  0.000  0.000  0.000  0.000  0.000  0.000  0.000
   13  0.000  0.000  0.000  0.000  0.000  0.000  0.000  0.000  0.000  0.000
   14  0.000  0.000  0.000  0.000  0.000  0.000  0.000  0.000  0.000  0.000
   15  0.000  0.000  0.000  0.000  0.000  0.000  0.000  0.000  0.000  0.000
   16  0.000  0.000  0.000  0.000  0.000  0.000  0.000  0.000  0.000  0.000
   17  0.000  0.000  0.000  0.000  0.000  0.000  0.000  0.000  0.000  0.000
   18  0.000  0.000  0.000  0.000  0.000  0.000  0.000  0.000  0.000  0.000
   19  0.000  0.000  0.000  0.000  0.000  0.000  0.000  0.000  0.000  0.000
   20  0.000  0.000  0.000  0.000  0.000  0.000  0.000  0.000  0.000  0.000
   21  0.000  0.000  0.000  0.000  0.000  0.000  0.000  0.000  0.000  0.000
   22  0.000  0.000  0.000  0.000  0.000  0.000  0.000  0.000  0.000  0.000
   23  0.000  0.000  0.000  0.000  0.000  0.000  0.000  0.000  0.000  0.000
   24  0.000  0.000  0.000  0.000  0.000  0.000  0.000  0.000  0.000  0.000
   25  0.000  0.000  0.000  0.000  0.000  0.000  0.000  0.000  0.000  0.000
   26  0.000  0.000  0.000  0.000  0.000  0.000  0.000  0.000  0.000  0.000
   27  0.000  0.000  0.000  0.000  0.000  0.000  0.000  0.000  0.000  0.000
   28  0.000  0.000  0.000  0.000  0.000  0.000  0.000  0.000  0.000  0.000
   29  0.000  0.000  0.000  0.000  0.000  0.000  0.000  0.000  0.000  0.000
   30  0.000  0.000  0.000  0.000  0.000  0.000  0.000  0.000  0.000  0.000
   31  0.000  0.000  0.000  0.000  0.000  0.000  0.000  0.000  0.000  0.000
   32  0.000  0.000  0.000  0.000  0.000  0.000  0.000  0.000  0.000  0.000
   33  0.000  0.000  0.000  0.000  0.000  0.000  0.000  0.000  0.000  0.000
   34  0.000  0.000  0.000  0.000  0.000  0.000  0.000  0.000  0.000  0.000
   35  0.000  0.000  0.000  0.000  0.000  0.000  0.000  0.000  0.000  0.000
   36  0.000  0.000  0.000  0.000  0.000  0.000  0.000  0.000  0.000  0.000
   37  0.078  0.002  0.053  0.000  0.000  0.000  0.000  0.000  0.000  0.133
   38  0.324  0.001  0.044  0.000  0.000  0.000  0.000  0.000  0.000  0.369
   39  0.077  0.002  0.053  0.000  0.000  0.000  0.000  0.000  0.000  0.132
   40  0.320  0.001  0.044  0.000  0.000  0.000  0.000  0.000  0.000  0.365
tot    0.800  0.005  0.194  0.000  0.000  0.000  0.000  0.000  0.000  1.000
 
band     3 # energy  -11.54284343 # occ.  2.00000000
 
ion      s     py     pz     px    dxy    dyz    dz2    dxz  x2-y2    tot
    1  0.000  0.000  0.000  0.000  0.000  0.000  0.000  0.000  0.000  0.000
    2  0.000  0.000  0.000  0.000  0.000  0.000  0.000  0.000  0.000  0.000
    3  0.000  0.000  0.000  0.000  0.000  0.000  0.000  0.000  0.000  0.000
    4  0.000  0.000  0.000  0.000  0.000  0.000  0.000  0.000  0.000  0.000
    5  0.000  0.000  0.000  0.000  0.000  0.000  0.000  0.000  0.000  0.000
    6  0.000  0.000  0.000  0.000  0.000  0.000  0.000  0.000  0.000  0.000
    7  0.000  0.000  0.000  0.000  0.000  0.000  0.000  0.000  0.000  0.000
    8  0.000  0.000  0.000  0.000  0.000  0.000  0.000  0.000  0.000  0.000
    9  0.000  0.000  0.000  0.000  0.000  0.000  0.000  0.000  0.000  0.000
   10  0.000  0.000  0.000  0.000  0.000  0.000  0.000  0.000  0.000  0.000
   11  0.000  0.000  0.000  0.000  0.000  0.000  0.000  0.000  0.000  0.000
   12  0.000  0.000  0.000  0.000  0.000  0.000  0.000  0.000  0.000  0.000
   13  0.000  0.000  0.000  0.000  0.000  0.000  0.000  0.000  0.000  0.000
   14  0.000  0.000  0.000  0.000  0.000  0.000  0.000  0.000  0.000  0.000
   15  0.000  0.000  0.000  0.000  0.000  0.000  0.000  0.000  0.000  0.000
   16  0.000  0.000  0.000  0.000  0.000  0.000  0.000  0.000  0.000  0.000
   17  0.000  0.000  0.000  0.000  0.000  0.000  0.000  0.000  0.000  0.000
   18  0.000  0.000  0.000  0.000  0.000  0.000  0.000  0.000  0.000  0.000
   19  0.001  0.000  0.000  0.000  0.000  0.000  0.000  0.000  0.000  0.001
   20  0.001  0.000  0.000  0.000  0.000  0.000  0.000  0.000  0.000  0.001
   21  0.001  0.000  0.000  0.000  0.000  0.000  0.000  0.000  0.000  0.001
   22  0.001  0.000  0.000  0.000  0.000  0.000  0.000  0.000  0.000  0.001
   23  0.001  0.000  0.000  0.000  0.000  0.000  0.000  0.000  0.000  0.001
   24  0.001  0.000  0.000  0.000  0.000  0.000  0.000  0.000  0.000  0.001
   25  0.002  0.000  0.000  0.000  0.000  0.000  0.000  0.000  0.000  0.002
   26  0.001  0.000  0.000  0.000  0.000  0.000  0.000  0.000  0.000  0.001
   27  0.001  0.000  0.000  0.000  0.000  0.000  0.000  0.000  0.000  0.001
   28  0.018  0.000  0.003  0.004  0.000  0.000  0.000  0.006  0.001  0.032
   29  0.018  0.000  0.003  0.004  0.000  0.000  0.000  0.006  0.001  0.032
   30  0.001  0.000  0.000  0.000  0.000  0.000  0.000  0.000  0.000  0.001
   31  0.003  0.000  0.000  0.000  0.000  0.000  0.000  0.000  0.000  0.004
   32  0.003  0.000  0.000  0.000  0.000  0.000  0.000  0.000  0.000  0.004
   33  0.000  0.000  0.000  0.000  0.000  0.000  0.000  0.000  0.000  0.000
   34  0.017  0.000  0.003  0.004  0.000  0.000  0.000  0.006  0.001  0.032
   35  0.017  0.000  0.003  0.004  0.000  0.000  0.000  0.006  0.001  0.032
   36  0.001  0.000  0.000  0.000  0.000  0.000  0.000  0.000  0.000  0.001
   37  0.135  0.000  0.008  0.000  0.000  0.000  0.000  0.000  0.000  0.144
   38  0.060  0.002  0.063  0.000  0.000  0.000  0.000  0.000  0.000  0.125
   39  0.134  0.000  0.008  0.000  0.000  0.000  0.000  0.000  0.000  0.142
   40  0.059  0.002  0.063  0.000  0.000  0.000  0.000  0.000  0.000  0.124
tot    0.474  0.006  0.154  0.016  0.001  0.001  0.001  0.024  0.005  0.683
 
band     4 # energy  -11.24521094 # occ.  2.00000000
 
ion      s     py     pz     px    dxy    dyz    dz2    dxz  x2-y2    tot
    1  0.000  0.000  0.000  0.000  0.000  0.000  0.000  0.000  0.000  0.000
    2  0.000  0.000  0.000  0.000  0.000  0.000  0.000  0.000  0.000  0.000
    3  0.000  0.000  0.000  0.000  0.000  0.000  0.000  0.000  0.000  0.000
    4  0.000  0.000  0.000  0.000  0.000  0.000  0.000  0.000  0.000  0.000
    5  0.000  0.000  0.000  0.000  0.000  0.000  0.000  0.000  0.000  0.000
    6  0.000  0.000  0.000  0.000  0.000  0.000  0.000  0.000  0.000  0.000
    7  0.000  0.000  0.000  0.000  0.000  0.000  0.000  0.000  0.000  0.000
    8  0.000  0.000  0.000  0.000  0.000  0.000  0.000  0.000  0.000  0.000
    9  0.000  0.000  0.000  0.000  0.000  0.000  0.000  0.000  0.000  0.000
   10  0.000  0.000  0.000  0.000  0.000  0.000  0.000  0.000  0.000  0.000
   11  0.000  0.000  0.000  0.000  0.000  0.000  0.000  0.000  0.000  0.000
   12  0.000  0.000  0.000  0.000  0.000  0.000  0.000  0.000  0.000  0.000
   13  0.000  0.000  0.000  0.000  0.000  0.000  0.000  0.000  0.000  0.000
   14  0.000  0.000  0.000  0.000  0.000  0.000  0.000  0.000  0.000  0.000
   15  0.000  0.000  0.000  0.000  0.000  0.000  0.000  0.000  0.000  0.000
   16  0.000  0.000  0.000  0.000  0.000  0.000  0.000  0.000  0.000  0.000
   17  0.000  0.000  0.000  0.000  0.000  0.000  0.000  0.000  0.000  0.000
   18  0.000  0.000  0.000  0.000  0.000  0.000  0.000  0.000  0.000  0.000
   19  0.000  0.000  0.000  0.000  0.000  0.000  0.000  0.000  0.000  0.000
   20  0.000  0.000  0.000  0.000  0.000  0.000  0.000  0.000  0.000  0.000
   21  0.000  0.000  0.000  0.000  0.000  0.000  0.000  0.000  0.000  0.000
   22  0.000  0.000  0.000  0.000  0.000  0.000  0.000  0.000  0.000  0.000
   23  0.000  0.000  0.000  0.000  0.000  0.000  0.000  0.000  0.000  0.000
   24  0.000  0.000  0.000  0.000  0.000  0.000  0.000  0.000  0.000  0.000
   25  0.000  0.000  0.000  0.000  0.000  0.000  0.000  0.000  0.000  0.000
   26  0.000  0.000  0.000  0.000  0.000  0.000  0.000  0.000  0.000  0.000
   27  0.000  0.000  0.000  0.000  0.000  0.000  0.000  0.000  0.000  0.000
   28  0.011  0.001  0.003  0.003  0.001  0.001  0.001  0.006  0.002  0.027
   29  0.011  0.001  0.003  0.003  0.001  0.001  0.001  0.006  0.002  0.027
   30  0.000  0.000  0.000  0.000  0.000  0.000  0.000  0.000  0.000  0.000
   31  0.000  0.001  0.000  0.000  0.000  0.000  0.000  0.000  0.000  0.001
   32  0.000  0.001  0.000  0.000  0.000  0.000  0.000  0.000  0.000  0.001
   33  0.000  0.000  0.000  0.000  0.000  0.000  0.000  0.000  0.000  0.000
   34  0.011  0.001  0.003  0.003  0.001  0.001  0.001  0.006  0.002  0.027
   35  0.011  0.001  0.003  0.003  0.001  0.001  0.001  0.006  0.002  0.027
   36  0.000  0.000  0.000  0.000  0.000  0.000  0.000  0.000  0.000  0.000
   37  0.144  0.000  0.005  0.000  0.000  0.000  0.000  0.000  0.000  0.149
   38  0.067  0.002  0.088  0.000  0.000  0.000  0.000  0.000  0.000  0.157
   39  0.145  0.000  0.005  0.000  0.000  0.000  0.000  0.000  0.000  0.150
   40  0.068  0.002  0.088  0.000  0.000  0.000  0.000  0.000  0.000  0.158
tot    0.468  0.007  0.198  0.013  0.003  0.003  0.002  0.024  0.007  0.726
 
band     5 # energy   -9.89174283 # occ.  2.00000000
 
ion      s     py     pz     px    dxy    dyz    dz2    dxz  x2-y2    tot
    1  0.007  0.000  0.001  0.000  0.000  0.000  0.000  0.000  0.000  0.008
    2  0.007  0.000  0.001  0.000  0.000  0.000  0.000  0.000  0.000  0.008
    3  0.007  0.000  0.001  0.000  0.000  0.000  0.000  0.000  0.000  0.008
    4  0.007  0.000  0.001  0.000  0.000  0.000  0.000  0.000  0.000  0.008
    5  0.007  0.000  0.001  0.000  0.000  0.000  0.000  0.000  0.000  0.008
    6  0.007  0.000  0.001  0.000  0.000  0.000  0.000  0.000  0.000  0.008
    7  0.007  0.000  0.001  0.000  0.000  0.000  0.000  0.000  0.000  0.008
    8  0.007  0.000  0.001  0.000  0.000  0.000  0.000  0.000  0.000  0.008
    9  0.007  0.000  0.001  0.000  0.000  0.000  0.000  0.000  0.000  0.008
   10  0.023  0.000  0.000  0.000  0.000  0.000  0.000  0.000  0.000  0.023
   11  0.023  0.000  0.000  0.000  0.000  0.000  0.000  0.000  0.000  0.023
   12  0.022  0.000  0.000  0.000  0.000  0.000  0.000  0.000  0.000  0.022
   13  0.024  0.000  0.000  0.000  0.000  0.000  0.000  0.000  0.000  0.024
   14  0.024  0.000  0.000  0.000  0.000  0.000  0.000  0.000  0.000  0.024
   15  0.023  0.000  0.000  0.000  0.000  0.000  0.000  0.000  0.000  0.023
   16  0.023  0.000  0.000  0.000  0.000  0.000  0.000  0.000  0.000  0.023
   17  0.023  0.000  0.000  0.000  0.000  0.000  0.000  0.000  0.000  0.023
   18  0.022  0.000  0.000  0.000  0.000  0.000  0.000  0.000  0.000  0.022
   19  0.022  0.000  0.000  0.000  0.000  0.000  0.000  0.000  0.000  0.022
   20  0.021  0.000  0.000  0.000  0.000  0.000  0.000  0.000  0.000  0.021
   21  0.021  0.000  0.000  0.000  0.000  0.000  0.000  0.000  0.000  0.021
   22  0.022  0.000  0.000  0.000  0.000  0.000  0.000  0.000  0.000  0.022
   23  0.021  0.000  0.000  0.000  0.000  0.000  0.000  0.000  0.000  0.021
   24  0.021  0.000  0.000  0.000  0.000  0.000  0.000  0.000  0.000  0.021
   25  0.020  0.000  0.000  0.000  0.000  0.000  0.000  0.000  0.000  0.020
   26  0.019  0.000  0.000  0.000  0.000  0.000  0.000  0.000  0.000  0.019
   27  0.019  0.000  0.000  0.000  0.000  0.000  0.000  0.000  0.000  0.019
   28  0.004  0.000  0.001  0.000  0.000  0.000  0.000  0.000  0.000  0.005
   29  0.004  0.000  0.001  0.000  0.000  0.000  0.000  0.000  0.000  0.005
   30  0.006  0.000  0.001  0.000  0.000  0.000  0.000  0.000  0.000  0.006
   31  0.006  0.000  0.001  0.000  0.000  0.000  0.000  0.000  0.000  0.007
   32  0.006  0.000  0.001  0.000  0.000  0.000  0.000  0.000  0.000  0.007
   33  0.006  0.000  0.001  0.000  0.000  0.000  0.000  0.000  0.000  0.007
   34  0.004  0.000  0.001  0.000  0.000  0.000  0.000  0.000  0.000  0.005
   35  0.004  0.000  0.001  0.000  0.000  0.000  0.000  0.000  0.000  0.005
   36  0.006  0.000  0.001  0.000  0.000  0.000  0.000  0.000  0.000  0.006
   37  0.004  0.000  0.002  0.000  0.000  0.000  0.000  0.000  0.000  0.006
   38  0.005  0.001  0.016  0.000  0.000  0.000  0.000  0.000  0.000  0.022
   39  0.004  0.000  0.002  0.000  0.000  0.000  0.000  0.000  0.000  0.006
   40  0.005  0.001  0.016  0.000  0.000  0.000  0.000  0.000  0.000  0.022
tot    0.523  0.002  0.055  0.000  0.000  0.000  0.001  0.000  0.000  0.581
 
band     6 # energy   -8.87852198 # occ.  2.00000000
 
ion      s     py     pz     px    dxy    dyz    dz2    dxz  x2-y2    tot
    1  0.006  0.000  0.000  0.000  0.000  0.000  0.000  0.000  0.000  0.006
    2  0.006  0.000  0.000  0.000  0.000  0.000  0.000  0.000  0.000  0.007
    3  0.006  0.000  0.000  0.000  0.000  0.000  0.000  0.000  0.000  0.007
    4  0.006  0.000  0.000  0.000  0.000  0.000  0.000  0.000  0.000  0.006
    5  0.006  0.000  0.000  0.000  0.000  0.000  0.000  0.000  0.000  0.007
    6  0.006  0.000  0.000  0.000  0.000  0.000  0.000  0.000  0.000  0.007
    7  0.005  0.000  0.000  0.000  0.000  0.000  0.000  0.000  0.000  0.006
    8  0.006  0.000  0.000  0.000  0.000  0.000  0.000  0.000  0.000  0.006
    9  0.006  0.000  0.000  0.000  0.000  0.000  0.000  0.000  0.000  0.006
   10  0.006  0.000  0.000  0.000  0.000  0.000  0.000  0.000  0.000  0.007
   11  0.006  0.000  0.000  0.000  0.000  0.000  0.000  0.000  0.000  0.007
   12  0.007  0.000  0.000  0.000  0.000  0.000  0.000  0.000  0.000  0.007
   13  0.007  0.000  0.000  0.000  0.000  0.000  0.000  0.000  0.000  0.007
   14  0.007  0.000  0.000  0.000  0.000  0.000  0.000  0.000  0.000  0.007
   15  0.008  0.000  0.000  0.000  0.000  0.000  0.000  0.000  0.000  0.008
   16  0.006  0.000  0.000  0.000  0.000  0.000  0.000  0.000  0.000  0.007
   17  0.006  0.000  0.000  0.000  0.000  0.000  0.000  0.000  0.000  0.007
   18  0.007  0.000  0.000  0.000  0.000  0.000  0.000  0.000  0.000  0.007
   19  0.001  0.000  0.002  0.000  0.000  0.000  0.000  0.000  0.000  0.002
   20  0.000  0.000  0.001  0.000  0.000  0.000  0.000  0.000  0.000  0.001
   21  0.000  0.000  0.001  0.000  0.000  0.000  0.000  0.000  0.000  0.001
   22  0.001  0.000  0.002  0.000  0.000  0.000  0.000  0.000  0.000  0.002
   23  0.000  0.000  0.001  0.000  0.000  0.000  0.000  0.000  0.000  0.001
   24  0.000  0.000  0.001  0.000  0.000  0.000  0.000  0.000  0.000  0.001
   25  0.002  0.000  0.002  0.000  0.000  0.000  0.000  0.000  0.000  0.003
   26  0.001  0.000  0.001  0.000  0.000  0.000  0.000  0.000  0.000  0.002
   27  0.001  0.000  0.001  0.000  0.000  0.000  0.000  0.000  0.000  0.002
   28  0.019  0.000  0.000  0.002  0.000  0.000  0.000  0.004  0.001  0.027
   29  0.019  0.000  0.000  0.002  0.000  0.000  0.000  0.004  0.001  0.027
   30  0.003  0.000  0.000  0.000  0.000  0.000  0.000  0.000  0.000  0.004
   31  0.006  0.000  0.000  0.000  0.000  0.000  0.001  0.000  0.000  0.007
   32  0.006  0.000  0.000  0.000  0.000  0.000  0.001  0.000  0.000  0.007
   33  0.002  0.000  0.000  0.000  0.000  0.000  0.000  0.000  0.000  0.002
   34  0.019  0.000  0.000  0.002  0.000  0.000  0.000  0.004  0.001  0.027
   35  0.019  0.000  0.000  0.002  0.000  0.000  0.000  0.004  0.001  0.027
   36  0.003  0.000  0.000  0.000  0.000  0.000  0.000  0.000  0.000  0.004
   37  0.000  0.002  0.063  0.000  0.000  0.000  0.000  0.000  0.000  0.065
   38  0.019  0.003  0.139  0.000  0.000  0.000  0.000  0.000  0.000  0.161
   39  0.000  0.002  0.063  0.000  0.000  0.000  0.000  0.000  0.000  0.065
   40  0.018  0.003  0.138  0.000  0.000  0.000  0.000  0.000  0.000  0.160
tot    0.248  0.011  0.424  0.009  0.001  0.001  0.007  0.015  0.006  0.721
 
band     7 # energy   -8.52920595 # occ.  2.00000000
 
ion      s     py     pz     px    dxy    dyz    dz2    dxz  x2-y2    tot
    1  0.000  0.000  0.000  0.000  0.000  0.000  0.000  0.000  0.000  0.000
    2  0.000  0.000  0.000  0.000  0.000  0.000  0.000  0.000  0.000  0.000
    3  0.000  0.000  0.000  0.000  0.000  0.000  0.000  0.000  0.000  0.000
    4  0.000  0.000  0.000  0.000  0.000  0.000  0.000  0.000  0.000  0.000
    5  0.000  0.000  0.000  0.000  0.000  0.000  0.000  0.000  0.000  0.000
    6  0.000  0.000  0.000  0.000  0.000  0.000  0.000  0.000  0.000  0.000
    7  0.000  0.000  0.000  0.000  0.000  0.000  0.000  0.000  0.000  0.000
    8  0.000  0.000  0.000  0.000  0.000  0.000  0.000  0.000  0.000  0.000
    9  0.000  0.000  0.000  0.000  0.000  0.000  0.000  0.000  0.000  0.000
   10  0.000  0.000  0.000  0.000  0.000  0.000  0.000  0.000  0.000  0.000
   11  0.000  0.000  0.000  0.000  0.000  0.000  0.000  0.000  0.000  0.000
   12  0.000  0.000  0.000  0.000  0.000  0.000  0.000  0.000  0.000  0.000
   13  0.000  0.000  0.000  0.000  0.000  0.000  0.000  0.000  0.000  0.000
   14  0.000  0.000  0.000  0.000  0.000  0.000  0.000  0.000  0.000  0.000
   15  0.000  0.000  0.000  0.000  0.000  0.000  0.000  0.000  0.000  0.000
   16  0.000  0.000  0.000  0.000  0.000  0.000  0.000  0.000  0.000  0.000
   17  0.000  0.000  0.000  0.000  0.000  0.000  0.000  0.000  0.000  0.000
   18  0.000  0.000  0.000  0.000  0.000  0.000  0.000  0.000  0.000  0.000
   19  0.003  0.000  0.000  0.000  0.000  0.000  0.000  0.000  0.000  0.004
   20  0.001  0.000  0.000  0.000  0.000  0.000  0.000  0.000  0.000  0.002
   21  0.001  0.000  0.000  0.000  0.000  0.000  0.000  0.000  0.000  0.002
   22  0.003  0.000  0.000  0.000  0.000  0.000  0.000  0.000  0.000  0.004
   23  0.001  0.000  0.000  0.000  0.000  0.000  0.000  0.000  0.000  0.002
   24  0.001  0.000  0.000  0.000  0.000  0.000  0.000  0.000  0.000  0.002
   25  0.000  0.001  0.000  0.000  0.000  0.000  0.000  0.000  0.000  0.001
   26  0.000  0.001  0.000  0.000  0.000  0.000  0.000  0.000  0.000  0.001
   27  0.000  0.001  0.000  0.000  0.000  0.000  0.000  0.000  0.000  0.001
   28  0.017  0.001  0.001  0.004  0.002  0.001  0.000  0.009  0.006  0.041
   29  0.017  0.001  0.001  0.004  0.002  0.001  0.000  0.009  0.006  0.041
   30  0.001  0.000  0.000  0.000  0.000  0.000  0.000  0.000  0.001  0.002
   31  0.000  0.002  0.000  0.000  0.001  0.000  0.000  0.000  0.000  0.003
   32  0.000  0.002  0.000  0.000  0.001  0.000  0.000  0.000  0.000  0.003
   33  0.000  0.000  0.000  0.000  0.000  0.000  0.000  0.000  0.000  0.000
   34  0.017  0.001  0.001  0.004  0.002  0.001  0.000  0.009  0.006  0.041
   35  0.017  0.001  0.001  0.004  0.002  0.001  0.000  0.009  0.006  0.041
   36  0.001  0.000  0.000  0.000  0.000  0.000  0.000  0.000  0.001  0.002
   37  0.003  0.000  0.102  0.000  0.000  0.000  0.000  0.000  0.000  0.105
   38  0.018  0.013  0.159  0.000  0.000  0.000  0.000  0.000  0.000  0.190
   39  0.003  0.000  0.103  0.000  0.000  0.000  0.000  0.000  0.000  0.106
   40  0.018  0.013  0.160  0.000  0.000  0.000  0.000  0.000  0.000  0.191
tot    0.125  0.039  0.530  0.015  0.009  0.005  0.001  0.038  0.025  0.787
 
band     8 # energy   -8.38404861 # occ.  2.00000000
 
ion      s     py     pz     px    dxy    dyz    dz2    dxz  x2-y2    tot
    1  0.001  0.000  0.000  0.000  0.000  0.000  0.000  0.000  0.000  0.001
    2  0.001  0.000  0.000  0.000  0.000  0.000  0.000  0.000  0.000  0.001
    3  0.001  0.000  0.000  0.000  0.000  0.000  0.000  0.000  0.000  0.001
    4  0.001  0.000  0.000  0.000  0.000  0.000  0.000  0.000  0.000  0.001
    5  0.001  0.000  0.000  0.000  0.000  0.000  0.000  0.000  0.000  0.001
    6  0.001  0.000  0.000  0.000  0.000  0.000  0.000  0.000  0.000  0.001
    7  0.001  0.000  0.000  0.000  0.000  0.000  0.000  0.000  0.000  0.001
    8  0.001  0.000  0.000  0.000  0.000  0.000  0.000  0.000  0.000  0.001
    9  0.001  0.000  0.000  0.000  0.000  0.000  0.000  0.000  0.000  0.001
   10  0.001  0.000  0.000  0.000  0.000  0.000  0.000  0.000  0.000  0.001
   11  0.001  0.000  0.000  0.000  0.000  0.000  0.000  0.000  0.000  0.001
   12  0.001  0.000  0.000  0.000  0.000  0.000  0.000  0.000  0.000  0.001
   13  0.000  0.000  0.000  0.000  0.000  0.000  0.000  0.000  0.000  0.000
   14  0.000  0.000  0.000  0.000  0.000  0.000  0.000  0.000  0.000  0.000
   15  0.000  0.000  0.000  0.000  0.000  0.000  0.000  0.000  0.000  0.000
   16  0.001  0.000  0.000  0.000  0.000  0.000  0.000  0.000  0.000  0.001
   17  0.001  0.000  0.000  0.000  0.000  0.000  0.000  0.000  0.000  0.001
   18  0.001  0.000  0.000  0.000  0.000  0.000  0.000  0.000  0.000  0.001
   19  0.001  0.000  0.000  0.000  0.000  0.000  0.000  0.000  0.000  0.002
   20  0.001  0.000  0.000  0.000  0.000  0.000  0.000  0.000  0.000  0.001
   21  0.001  0.000  0.000  0.000  0.000  0.000  0.000  0.000  0.000  0.001
   22  0.001  0.000  0.000  0.000  0.000  0.000  0.000  0.000  0.000  0.002
   23  0.001  0.000  0.000  0.000  0.000  0.000  0.000  0.000  0.000  0.001
   24  0.001  0.000  0.000  0.000  0.000  0.000  0.000  0.000  0.000  0.001
   25  0.000  0.000  0.000  0.000  0.000  0.000  0.000  0.000  0.000  0.000
   26  0.000  0.000  0.000  0.000  0.000  0.000  0.000  0.000  0.000  0.000
   27  0.000  0.000  0.000  0.000  0.000  0.000  0.000  0.000  0.000  0.000
   28  0.000  0.001  0.000  0.000  0.002  0.001  0.000  0.001  0.001  0.007
   29  0.000  0.001  0.000  0.000  0.002  0.001  0.000  0.001  0.001  0.007
   30  0.000  0.000  0.000  0.000  0.000  0.000  0.000  0.000  0.000  0.000
   31  0.008  0.000  0.000  0.000  0.000  0.000  0.000  0.000  0.000  0.008
   32  0.008  0.000  0.000  0.000  0.000  0.000  0.000  0.000  0.000  0.008
   33  0.002  0.000  0.000  0.000  0.000  0.000  0.000  0.000  0.000  0.002
   34  0.000  0.001  0.000  0.000  0.002  0.001  0.000  0.001  0.001  0.007
   35  0.000  0.001  0.000  0.000  0.002  0.001  0.000  0.001  0.001  0.007
   36  0.000  0.000  0.000  0.000  0.000  0.000  0.000  0.000  0.000  0.000
   37  0.000  0.083  0.000  0.000  0.000  0.000  0.000  0.000  0.000  0.083
   38  0.000  0.181  0.016  0.000  0.000  0.000  0.000  0.000  0.000  0.197
   39  0.000  0.083  0.000  0.000  0.000  0.000  0.000  0.000  0.000  0.083
   40  0.000  0.181  0.015  0.000  0.000  0.000  0.000  0.000  0.000  0.196
tot    0.035  0.535  0.035  0.002  0.007  0.005  0.003  0.004  0.003  0.630
 
band     9 # energy   -8.34967430 # occ.  2.00000000
 
ion      s     py     pz     px    dxy    dyz    dz2    dxz  x2-y2    tot
    1  0.000  0.000  0.000  0.000  0.000  0.000  0.000  0.000  0.000  0.000
    2  0.000  0.000  0.000  0.000  0.000  0.000  0.000  0.000  0.000  0.000
    3  0.000  0.000  0.000  0.000  0.000  0.000  0.000  0.000  0.000  0.000
    4  0.000  0.000  0.000  0.000  0.000  0.000  0.000  0.000  0.000  0.000
    5  0.000  0.000  0.000  0.000  0.000  0.000  0.000  0.000  0.000  0.000
    6  0.000  0.000  0.000  0.000  0.000  0.000  0.000  0.000  0.000  0.000
    7  0.000  0.000  0.000  0.000  0.000  0.000  0.000  0.000  0.000  0.000
    8  0.000  0.000  0.000  0.000  0.000  0.000  0.000  0.000  0.000  0.000
    9  0.000  0.000  0.000  0.000  0.000  0.000  0.000  0.000  0.000  0.000
   10  0.000  0.000  0.000  0.000  0.000  0.000  0.000  0.000  0.000  0.000
   11  0.000  0.000  0.000  0.000  0.000  0.000  0.000  0.000  0.000  0.000
   12  0.000  0.000  0.000  0.000  0.000  0.000  0.000  0.000  0.000  0.000
   13  0.000  0.000  0.000  0.000  0.000  0.000  0.000  0.000  0.000  0.000
   14  0.000  0.000  0.000  0.000  0.000  0.000  0.000  0.000  0.000  0.000
   15  0.000  0.000  0.000  0.000  0.000  0.000  0.000  0.000  0.000  0.000
   16  0.000  0.000  0.000  0.000  0.000  0.000  0.000  0.000  0.000  0.000
   17  0.000  0.000  0.000  0.000  0.000  0.000  0.000  0.000  0.000  0.000
   18  0.000  0.000  0.000  0.000  0.000  0.000  0.000  0.000  0.000  0.000
   19  0.000  0.000  0.000  0.000  0.000  0.000  0.000  0.000  0.000  0.001
   20  0.001  0.000  0.000  0.000  0.000  0.000  0.000  0.000  0.000  0.002
   21  0.001  0.000  0.000  0.000  0.000  0.000  0.000  0.000  0.000  0.002
   22  0.000  0.000  0.000  0.000  0.000  0.000  0.000  0.000  0.000  0.001
   23  0.001  0.000  0.000  0.000  0.000  0.000  0.000  0.000  0.000  0.001
   24  0.001  0.000  0.000  0.000  0.000  0.000  0.000  0.000  0.000  0.001
   25  0.000  0.000  0.000  0.001  0.000  0.000  0.000  0.000  0.000  0.001
   26  0.002  0.000  0.000  0.000  0.000  0.000  0.000  0.000  0.000  0.002
   27  0.002  0.000  0.000  0.000  0.000  0.000  0.000  0.000  0.000  0.002
   28  0.008  0.000  0.001  0.000  0.000  0.001  0.004  0.003  0.000  0.018
   29  0.008  0.000  0.001  0.000  0.000  0.001  0.004  0.003  0.000  0.018
   30  0.000  0.000  0.000  0.000  0.000  0.000  0.000  0.000  0.000  0.001
   31  0.002  0.000  0.000  0.000  0.000  0.000  0.000  0.000  0.001  0.003
   32  0.002  0.000  0.000  0.000  0.000  0.000  0.000  0.000  0.001  0.003
   33  0.000  0.000  0.000  0.000  0.000  0.000  0.000  0.000  0.000  0.000
   34  0.008  0.000  0.001  0.000  0.000  0.001  0.004  0.003  0.000  0.017
   35  0.008  0.000  0.001  0.000  0.000  0.001  0.004  0.003  0.000  0.017
   36  0.000  0.000  0.000  0.000  0.000  0.000  0.000  0.000  0.000  0.001
   37  0.000  0.000  0.000  0.091  0.000  0.000  0.000  0.000  0.000  0.091
   38  0.000  0.000  0.000  0.195  0.000  0.000  0.000  0.000  0.000  0.195
   39  0.000  0.000  0.000  0.090  0.000  0.000  0.000  0.000  0.000  0.090
   40  0.000  0.000  0.000  0.193  0.000  0.000  0.000  0.000  0.000  0.193
tot    0.047  0.000  0.005  0.574  0.001  0.003  0.016  0.013  0.003  0.663
 
band    10 # energy   -8.21119929 # occ.  2.00000000
 
ion      s     py     pz     px    dxy    dyz    dz2    dxz  x2-y2    tot
    1  0.000  0.000  0.000  0.000  0.000  0.000  0.000  0.000  0.000  0.000
    2  0.000  0.000  0.000  0.000  0.000  0.000  0.000  0.000  0.000  0.000
    3  0.000  0.000  0.000  0.000  0.000  0.000  0.000  0.000  0.000  0.000
    4  0.000  0.000  0.000  0.000  0.000  0.000  0.000  0.000  0.000  0.000
    5  0.000  0.000  0.000  0.000  0.000  0.000  0.000  0.000  0.000  0.000
    6  0.000  0.000  0.000  0.000  0.000  0.000  0.000  0.000  0.000  0.000