Cu(100) coverage-dependent binding (RPBE
            1
     7.668573    0.000000    0.000000
     0.000000    7.668573    0.000000
     0.000000    0.000000   29.422500
   Cu   C    O    C    O 
    36     1     1     1     1
Direct configuration=     1
   0.16666667  0.16666667  0.40785113
   0.50000000  0.16666667  0.40785113
   0.83333333  0.16666667  0.40785113
   0.16666667  0.50000000  0.40785113
   0.50000000  0.50000000  0.40785113
   0.83333333  0.50000000  0.40785113
   0.16666667  0.83333333  0.40785113
   0.50000000  0.83333333  0.40785113
   0.83333333  0.83333333  0.40785113
   0.00000000  0.00000000  0.46928371
   0.33333333  0.00000000  0.46928371
   0.66666667  0.00000000  0.46928371
   0.00000000  0.33333333  0.46928371
   0.33333333  0.33333333  0.46928371
   0.66666667  0.33333333  0.46928371
   0.00000000  0.66666667  0.46928371
   0.33333333  0.66666667  0.46928371
   0.66666667  0.66666667  0.46928371
   0.16666667  0.16666667  0.53071629
   0.50000000  0.16666667  0.53071629
   0.83333333  0.16666667  0.53071629
   0.16666667  0.50000000  0.53071629
   0.50000000  0.50000000  0.53071629
   0.83333333  0.50000000  0.53071629
   0.16666667  0.83333333  0.53071629
   0.50000000  0.83333333  0.53071629
   0.83333333  0.83333333  0.53071629
   0.00000000  0.00000000  0.59214887
   0.33333333  0.00000000  0.59214887
   0.66666667  0.00000000  0.59214887
   0.00000000  0.33333333  0.59214887
   0.33333333  0.33333333  0.59214887
   0.66666667  0.33333333  0.59214887
   0.00000000  0.66666667  0.59214887
   0.33333333  0.66666667  0.59214887
   0.66666667  0.66666667  0.59214887
   0.16666667  0.16666667  0.64313026
   0.16666667  0.16666667  0.68255587
   0.16666667  0.50000000  0.64313026
   0.16666667  0.50000000  0.68255587
Direct configuration=     2
   0.16666667  0.16666667  0.40785113
   0.50000000  0.16666667  0.40785113
   0.83333333  0.16666667  0.40785113
   0.16666667  0.50000000  0.40785113
   0.50000000  0.50000000  0.40785113
   0.83333333  0.50000000  0.40785113
   0.16666667  0.83333333  0.40785113
   0.50000000  0.83333333  0.40785113
   0.83333333  0.83333333  0.40785113
   0.00000000  0.00000000  0.46928371
   0.33333333  0.00000000  0.46928371
   0.66666667  0.00000000  0.46928371
   0.00000000  0.33333333  0.46928371
   0.33333333  0.33333333  0.46928371
   0.66666667  0.33333333  0.46928371
   0.00000000  0.66666667  0.46928371
   0.33333333  0.66666667  0.46928371
   0.66666667  0.66666667  0.46928371
   0.16666667  0.16715860  0.53017405
   0.49975964  0.16672753  0.53104681
   0.83357369  0.16672753  0.53104681
   0.16666667  0.49953582  0.53017675
   0.49976289  0.49997031  0.53105264
   0.83357044  0.49997031  0.53105264
   0.16666667  0.83331158  0.53096596
   0.49973165  0.83330795  0.53119795
   0.83360168  0.83330795  0.53119795
   0.00068978  0.00059447  0.59288370
   0.33264356  0.00059447  0.59288370
   0.66666667  0.00000061  0.59233699
   0.99989061  0.33329038  0.59309269
   0.33344272  0.33329038  0.59309269
   0.66666667  0.33330491  0.59234983
   0.00067553  0.66612217  0.59288415
   0.33265780  0.66612217  0.59288415
   0.66666667  0.66670031  0.59233804
   0.16666667  0.15994842  0.63905928
   0.16666667  0.16384209  0.68582912
   0.16666667  0.50669086  0.63905481
   0.16666667  0.50277965  0.68582451
Direct configuration=     3
   0.16666667  0.16666667  0.40785113
   0.50000000  0.16666667  0.40785113
   0.83333333  0.16666667  0.40785113
   0.16666667  0.50000000  0.40785113
   0.50000000  0.50000000  0.40785113
   0.83333333  0.50000000  0.40785113
   0.16666667  0.83333333  0.40785113
   0.50000000  0.83333333  0.40785113
   0.83333333  0.83333333  0.40785113
   0.00000000  0.00000000  0.46928371
   0.33333333  0.00000000  0.46928371
   0.66666667  0.00000000  0.46928371
   0.00000000  0.33333333  0.46928371
   0.33333333  0.33333333  0.46928371
   0.66666667  0.33333333  0.46928371
   0.00000000  0.66666667  0.46928371
   0.33333333  0.66666667  0.46928371
   0.66666667  0.66666667  0.46928371
   0.16666667  0.16674572  0.53062915
   0.49996137  0.16667645  0.53076940
   0.83337196  0.16667645  0.53076940
   0.16666667  0.49992541  0.53062959
   0.49996190  0.49999523  0.53077034
   0.83337144  0.49999523  0.53077034
   0.16666667  0.83332984  0.53075641
   0.49995688  0.83332925  0.53079369
   0.83337646  0.83332925  0.53079369
   0.00011085  0.00009553  0.59226695
   0.33322249  0.00009553  0.59226695
   0.66666667  0.00000010  0.59217910
   0.99998242  0.33332643  0.59230054
   0.33335091  0.33332643  0.59230054
   0.66666667  0.33332877  0.59218116
   0.00010856  0.66657917  0.59226703
   0.33322478  0.66657917  0.59226703
   0.66666667  0.66667207  0.59217927
   0.16666667  0.16558705  0.64247605
   0.16666667  0.16621276  0.68308188
   0.16666667  0.50107522  0.64247534
   0.16666667  0.50044669  0.68308114
Direct configuration=     4
   0.16666667  0.16666667  0.40785113
   0.50000000  0.16666667  0.40785113
   0.83333333  0.16666667  0.40785113
   0.16666667  0.50000000  0.40785113
   0.50000000  0.50000000  0.40785113
   0.83333333  0.50000000  0.40785113
   0.16666667  0.83333333  0.40785113
   0.50000000  0.83333333  0.40785113
   0.83333333  0.83333333  0.40785113
   0.00000000  0.00000000  0.46928371
   0.33333333  0.00000000  0.46928371
   0.66666667  0.00000000  0.46928371
   0.00000000  0.33333333  0.46928371
   0.33333333  0.33333333  0.46928371
   0.66666667  0.33333333  0.46928371
   0.00000000  0.66666667  0.46928371
   0.33333333  0.66666667  0.46928371
   0.66666667  0.66666667  0.46928371
   0.16666667  0.16674056  0.53063484
   0.49996390  0.16667581  0.53076594
   0.83336944  0.16667581  0.53076594
   0.16666667  0.49993027  0.53063524
   0.49996438  0.49999554  0.53076681
   0.83336895  0.49999554  0.53076681
   0.16666667  0.83333007  0.53075379
   0.49995969  0.83332952  0.53078864
   0.83337364  0.83332952  0.53078864
   0.00010361  0.00008929  0.59225925
   0.33322972  0.00008929  0.59225925
   0.66666667  0.00000009  0.59217712
   0.99998357  0.33332688  0.59229064
   0.33334976  0.33332688  0.59229064
   0.66666667  0.33332906  0.59217905
   0.00010147  0.66658488  0.59225931
   0.33323186  0.66658488  0.59225931
   0.66666667  0.66667172  0.59217728
   0.16666667  0.16565752  0.64251875
   0.16666667  0.16624239  0.68304754
   0.16666667  0.50100504  0.64251808
   0.16666667  0.50041753  0.68304685
Direct configuration=     5
   0.16666667  0.16666667  0.40785113
   0.50000000  0.16666667  0.40785113
   0.83333333  0.16666667  0.40785113
   0.16666667  0.50000000  0.40785113
   0.50000000  0.50000000  0.40785113
   0.83333333  0.50000000  0.40785113
   0.16666667  0.83333333  0.40785113
   0.50000000  0.83333333  0.40785113
   0.83333333  0.83333333  0.40785113
   0.00000000  0.00000000  0.46928371
   0.33333333  0.00000000  0.46928371
   0.66666667  0.00000000  0.46928371
   0.00000000  0.33333333  0.46928371
   0.33333333  0.33333333  0.46928371
   0.66666667  0.33333333  0.46928371
   0.00000000  0.66666667  0.46928371
   0.33333333  0.66666667  0.46928371
   0.66666667  0.66666667  0.46928371
   0.16666667  0.16724220  0.53009062
   0.49971241  0.16673597  0.53111479
   0.83362092  0.16673597  0.53111479
   0.16666667  0.49945592  0.53009347
   0.49971547  0.49996690  0.53112115
   0.83361787  0.49996690  0.53112115
   0.16666667  0.83330826  0.53100916
   0.49965701  0.83330412  0.53129747
   0.83367632  0.83330412  0.53129747
   0.00094407  0.00083283  0.59307461
   0.33238926  0.00083283  0.59307461
   0.66666667  0.00000444  0.59237054
   0.00008493  0.33328172  0.59334297
   0.33324840  0.33328172  0.59334297
   0.66666667  0.33329971  0.59238372
   0.00092739  0.66589630  0.59307298
   0.33240594  0.66589630  0.59307298
   0.66666667  0.66670298  0.59237193
   0.16666667  0.15869016  0.64198910
   0.16666667  0.16325074  0.68256153
   0.16666667  0.50793888  0.64199002
   0.16666667  0.50336167  0.68256825
Direct configuration=     6
   0.16666667  0.16666667  0.40785113
   0.50000000  0.16666667  0.40785113
   0.83333333  0.16666667  0.40785113
   0.16666667  0.50000000  0.40785113
   0.50000000  0.50000000  0.40785113
   0.83333333  0.50000000  0.40785113
   0.16666667  0.83333333  0.40785113
   0.50000000  0.83333333  0.40785113
   0.83333333  0.83333333  0.40785113
   0.00000000  0.00000000  0.46928371
   0.33333333  0.00000000  0.46928371
   0.66666667  0.00000000  0.46928371
   0.00000000  0.33333333  0.46928371
   0.33333333  0.33333333  0.46928371
   0.66666667  0.33333333  0.46928371
   0.00000000  0.66666667  0.46928371
   0.33333333  0.66666667  0.46928371
   0.66666667  0.66666667  0.46928371
   0.16666667  0.16874712  0.52845795
   0.49895796  0.16691645  0.53216137
   0.83437538  0.16691645  0.53216137
   0.16666667  0.49803285  0.52846814
   0.49896871  0.49988098  0.53218415
   0.83436462  0.49988098  0.53218415
   0.16666667  0.83324285  0.53177524
   0.49874897  0.83322790  0.53282397
   0.83458436  0.83322790  0.53282397
   0.00346544  0.00306345  0.59552072
   0.32986789  0.00306345  0.59552072
   0.66666667  0.00001749  0.59295079
   0.00038901  0.33314622  0.59649995
   0.33294432  0.33314622  0.59649995
   0.66666667  0.33321164  0.59299771
   0.00340516  0.66383058  0.59551400
   0.32992817  0.66383058  0.59551400
   0.66666667  0.66679674  0.59295587
   0.16666667  0.13778810  0.64040015
   0.16666667  0.15427580  0.68110348
   0.16666667  0.52874042  0.64040584
   0.16666667  0.51219410  0.68113244
Direct configuration=     7
   0.16666667  0.16666667  0.40785113
   0.50000000  0.16666667  0.40785113
   0.83333333  0.16666667  0.40785113
   0.16666667  0.50000000  0.40785113
   0.50000000  0.50000000  0.40785113
   0.83333333  0.50000000  0.40785113
   0.16666667  0.83333333  0.40785113
   0.50000000  0.83333333  0.40785113
   0.83333333  0.83333333  0.40785113
   0.00000000  0.00000000  0.46928371
   0.33333333  0.00000000  0.46928371
   0.66666667  0.00000000  0.46928371
   0.00000000  0.33333333  0.46928371
   0.33333333  0.33333333  0.46928371
   0.66666667  0.33333333  0.46928371
   0.00000000  0.66666667  0.46928371
   0.33333333  0.66666667  0.46928371
   0.66666667  0.66666667  0.46928371
   0.16666667  0.16927590  0.52788428
   0.49869286  0.16697986  0.53252911
   0.83464047  0.16697986  0.53252911
   0.16666667  0.49753283  0.52789705
   0.49870632  0.49985078  0.53255765
   0.83462701  0.49985078  0.53255765
   0.16666667  0.83321987  0.53204442
   0.49842992  0.83320112  0.53336033
   0.83490341  0.83320112  0.53336033
   0.00435138  0.00384722  0.59638021
   0.32898196  0.00384722  0.59638021
   0.66666667  0.00002207  0.59315468
   0.00049585  0.33309862  0.59760921
   0.33283748  0.33309862  0.59760921
   0.66666667  0.33318070  0.59321344
   0.00427577  0.66310475  0.59637169
   0.32905756  0.66310475  0.59637169
   0.66666667  0.66682969  0.59316105
   0.16666667  0.13044377  0.63984184
   0.16666667  0.15112228  0.68059116
   0.16666667  0.53604943  0.63984920
   0.16666667  0.51529754  0.68062794
Direct configuration=     8
   0.16666667  0.16666667  0.40785113
   0.50000000  0.16666667  0.40785113
   0.83333333  0.16666667  0.40785113
   0.16666667  0.50000000  0.40785113
   0.50000000  0.50000000  0.40785113
   0.83333333  0.50000000  0.40785113
   0.16666667  0.83333333  0.40785113
   0.50000000  0.83333333  0.40785113
   0.83333333  0.83333333  0.40785113
   0.00000000  0.00000000  0.46928371
   0.33333333  0.00000000  0.46928371
   0.66666667  0.00000000  0.46928371
   0.00000000  0.33333333  0.46928371
   0.33333333  0.33333333  0.46928371
   0.66666667  0.33333333  0.46928371
   0.00000000  0.66666667  0.46928371
   0.33333333  0.66666667  0.46928371
   0.66666667  0.66666667  0.46928371
   0.16666667  0.16969967  0.52823897
   0.49788241  0.16705600  0.53306521
   0.83545092  0.16705600  0.53306521
   0.16666667  0.49703322  0.52825511
   0.49790107  0.49977724  0.53309138
   0.83543226  0.49977724  0.53309138
   0.16666667  0.83323299  0.53248264
   0.49701384  0.83321528  0.53404430
   0.83631949  0.83321528  0.53404430
   0.00374853  0.00374406  0.59704835
   0.32958480  0.00374406  0.59704835
   0.66666667  0.00042595  0.59371571
   0.00062715  0.33313185  0.59836058
   0.33270618  0.33313185  0.59836058
   0.66666667  0.33318191  0.59372781
   0.00373980  0.66316644  0.59706208
   0.32959353  0.66316644  0.59706208
   0.66666667  0.66643857  0.59373005
   0.16666667  0.12349220  0.64165218
   0.16666667  0.14617765  0.67816818
   0.16666667  0.54297034  0.64174907
   0.16666667  0.52020211  0.67808624
Direct configuration=     9
   0.16666667  0.16666667  0.40785113
   0.50000000  0.16666667  0.40785113
   0.83333333  0.16666667  0.40785113
   0.16666667  0.50000000  0.40785113
   0.50000000  0.50000000  0.40785113
   0.83333333  0.50000000  0.40785113
   0.16666667  0.83333333  0.40785113
   0.50000000  0.83333333  0.40785113
   0.83333333  0.83333333  0.40785113
   0.00000000  0.00000000  0.46928371
   0.33333333  0.00000000  0.46928371
   0.66666667  0.00000000  0.46928371
   0.00000000  0.33333333  0.46928371
   0.33333333  0.33333333  0.46928371
   0.66666667  0.33333333  0.46928371
   0.00000000  0.66666667  0.46928371
   0.33333333  0.66666667  0.46928371
   0.66666667  0.66666667  0.46928371
   0.16666667  0.16934473  0.52794190
   0.49856122  0.16699223  0.53261619
   0.83477211  0.16699223  0.53261619
   0.16666667  0.49745168  0.52795521
   0.49857552  0.49983884  0.53264435
   0.83475781  0.49983884  0.53264435
   0.16666667  0.83322200  0.53211560
   0.49819990  0.83320342  0.53347143
   0.83513343  0.83320342  0.53347143
   0.00425345  0.00383047  0.59648874
   0.32907988  0.00383047  0.59648874
   0.66666667  0.00008768  0.59324581
   0.00051718  0.33310401  0.59773126
   0.33281615  0.33310401  0.59773126
   0.66666667  0.33318089  0.59329699
   0.00418871  0.66311477  0.59648384
   0.32914462  0.66311477  0.59648384
   0.66666667  0.66676616  0.59325347
   0.16666667  0.12931459  0.64013590
   0.16666667  0.15031911  0.68019759
   0.16666667  0.53717362  0.64015781
   0.16666667  0.51609421  0.68021508
Direct configuration=    10
   0.16666667  0.16666667  0.40785113
   0.50000000  0.16666667  0.40785113
   0.83333333  0.16666667  0.40785113
   0.16666667  0.50000000  0.40785113
   0.50000000  0.50000000  0.40785113
   0.83333333  0.50000000  0.40785113
   0.16666667  0.83333333  0.40785113
   0.50000000  0.83333333  0.40785113
   0.83333333  0.83333333  0.40785113
   0.00000000  0.00000000  0.46928371
   0.33333333  0.00000000  0.46928371
   0.66666667  0.00000000  0.46928371
   0.00000000  0.33333333  0.46928371
   0.33333333  0.33333333  0.46928371
   0.66666667  0.33333333  0.46928371
   0.00000000  0.66666667  0.46928371
   0.33333333  0.66666667  0.46928371
   0.66666667  0.66666667  0.46928371
   0.16666667  0.16933517  0.52874293
   0.49800469  0.16701721  0.53284735
   0.83532864  0.16701721  0.53284735
   0.16666667  0.49736340  0.52875848
   0.49802140  0.49979357  0.53287060
   0.83531194  0.49979357  0.53287060
   0.16666667  0.83325029  0.53233372
   0.49711053  0.83323980  0.53371492
   0.83622281  0.83323980  0.53371492
   0.00295265  0.00308907  0.59644310
   0.33038068  0.00308907  0.59644310
   0.66666667  0.00047362  0.59364353
   0.00039356  0.33316397  0.59752980
   0.33293977  0.33316397  0.59752980
   0.66666667  0.33320723  0.59364163
   0.00295490  0.66377290  0.59645821
   0.33037843  0.66377290  0.59645821
   0.66666667  0.66636504  0.59365776
   0.16666667  0.12710409  0.64032347
   0.16666667  0.14901680  0.68038023
   0.16666667  0.53943369  0.64034855
   0.16666667  0.51734157  0.68036348
Direct configuration=    11
   0.16666667  0.16666667  0.40785113
   0.50000000  0.16666667  0.40785113
   0.83333333  0.16666667  0.40785113
   0.16666667  0.50000000  0.40785113
   0.50000000  0.50000000  0.40785113
   0.83333333  0.50000000  0.40785113
   0.16666667  0.83333333  0.40785113
   0.50000000  0.83333333  0.40785113
   0.83333333  0.83333333  0.40785113
   0.00000000  0.00000000  0.46928371
   0.33333333  0.00000000  0.46928371
   0.66666667  0.00000000  0.46928371
   0.00000000  0.33333333  0.46928371
   0.33333333  0.33333333  0.46928371
   0.66666667  0.33333333  0.46928371
   0.00000000  0.66666667  0.46928371
   0.33333333  0.66666667  0.46928371
   0.66666667  0.66666667  0.46928371
   0.16666667  0.16930650  0.53114601
   0.49633510  0.16709215  0.53354083
   0.83699824  0.16709215  0.53354083
   0.16666667  0.49709857  0.53116827
   0.49635902  0.49965777  0.53354934
   0.83697431  0.49965777  0.53354934
   0.16666667  0.83333515  0.53298808
   0.49384241  0.83334894  0.53444538
   0.83949092  0.83334894  0.53444538
   0.99905026  0.00086487  0.59630620
   0.33428308  0.00086487  0.59630620
   0.66666667  0.00163143  0.59483669
   0.00002271  0.33334382  0.59692543
   0.33331063  0.33334382  0.59692543
   0.66666667  0.33328625  0.59467553
   0.99925347  0.66574727  0.59638132
   0.33407986  0.66574727  0.59638132
   0.66666667  0.66516170  0.59487063
   0.16666667  0.12047260  0.64088618
   0.16666667  0.14510987  0.68092817
   0.16666667  0.54621389  0.64092077
   0.16666667  0.52108366  0.68080870
Direct configuration=    12
   0.16666667  0.16666667  0.40785113
   0.50000000  0.16666667  0.40785113
   0.83333333  0.16666667  0.40785113
   0.16666667  0.50000000  0.40785113
   0.50000000  0.50000000  0.40785113
   0.83333333  0.50000000  0.40785113
   0.16666667  0.83333333  0.40785113
   0.50000000  0.83333333  0.40785113
   0.83333333  0.83333333  0.40785113
   0.00000000  0.00000000  0.46928371
   0.33333333  0.00000000  0.46928371
   0.66666667  0.00000000  0.46928371
   0.00000000  0.33333333  0.46928371
   0.33333333  0.33333333  0.46928371
   0.66666667  0.33333333  0.46928371
   0.00000000  0.66666667  0.46928371
   0.33333333  0.66666667  0.46928371
   0.66666667  0.66666667  0.46928371
   0.16666667  0.16930976  0.53087283
   0.49652490  0.16708363  0.53346200
   0.83680843  0.16708363  0.53346200
   0.16666667  0.49712868  0.53089432
   0.49654800  0.49967320  0.53347218
   0.83678533  0.49967320  0.53347218
   0.16666667  0.83332551  0.53291370
   0.49421393  0.83333654  0.53436234
   0.83911940  0.83333654  0.53436234
   0.99949388  0.00111771  0.59632176
   0.33383945  0.00111771  0.59632176
   0.66666667  0.00149981  0.59470105
   0.00006487  0.33332338  0.59699414
   0.33326847  0.33332338  0.59699414
   0.66666667  0.33327727  0.59455800
   0.99967425  0.66552282  0.59639006
   0.33365908  0.66552282  0.59639006
   0.66666667  0.66529850  0.59473275
   0.16666667  0.12122647  0.64082221
   0.16666667  0.14555401  0.68086588
   0.16666667  0.54544311  0.64085572
   0.16666667  0.52065826  0.68075809
Direct configuration=    13
   0.16666667  0.16666667  0.40785113
   0.50000000  0.16666667  0.40785113
   0.83333333  0.16666667  0.40785113
   0.16666667  0.50000000  0.40785113
   0.50000000  0.50000000  0.40785113
   0.83333333  0.50000000  0.40785113
   0.16666667  0.83333333  0.40785113
   0.50000000  0.83333333  0.40785113
   0.83333333  0.83333333  0.40785113
   0.00000000  0.00000000  0.46928371
   0.33333333  0.00000000  0.46928371
   0.66666667  0.00000000  0.46928371
   0.00000000  0.33333333  0.46928371
   0.33333333  0.33333333  0.46928371
   0.66666667  0.33333333  0.46928371
   0.00000000  0.66666667  0.46928371
   0.33333333  0.66666667  0.46928371
   0.66666667  0.66666667  0.46928371
   0.16666667  0.16928155  0.53134475
   0.49724280  0.16707159  0.53352884
   0.83609053  0.16707159  0.53352884
   0.16666667  0.49710389  0.53136729
   0.49724120  0.49970223  0.53355627
   0.83609214  0.49970223  0.53355627
   0.16666667  0.83327687  0.53290531
   0.49508242  0.83332121  0.53440809
   0.83825091  0.83332121  0.53440809
   0.99948920  0.00099531  0.59662685
   0.33384413  0.00099531  0.59662685
   0.66666667  0.00149606  0.59511337
   0.99983253  0.33329524  0.59679299
   0.33350081  0.33329524  0.59679299
   0.66666667  0.33329727  0.59496517
   0.99959078  0.66569271  0.59666341
   0.33374256  0.66569271  0.59666341
   0.66666667  0.66535199  0.59514762
   0.16666667  0.11858694  0.64162267
   0.16666667  0.14358948  0.68071357
   0.16666667  0.54846489  0.64109804
   0.16666667  0.52214787  0.68121259
Direct configuration=    14
   0.16666667  0.16666667  0.40785113
   0.50000000  0.16666667  0.40785113
   0.83333333  0.16666667  0.40785113
   0.16666667  0.50000000  0.40785113
   0.50000000  0.50000000  0.40785113
   0.83333333  0.50000000  0.40785113
   0.16666667  0.83333333  0.40785113
   0.50000000  0.83333333  0.40785113
   0.83333333  0.83333333  0.40785113
   0.00000000  0.00000000  0.46928371
   0.33333333  0.00000000  0.46928371
   0.66666667  0.00000000  0.46928371
   0.00000000  0.33333333  0.46928371
   0.33333333  0.33333333  0.46928371
   0.66666667  0.33333333  0.46928371
   0.00000000  0.66666667  0.46928371
   0.33333333  0.66666667  0.46928371
   0.66666667  0.66666667  0.46928371
   0.16666667  0.16929559  0.53110979
   0.49688537  0.16707759  0.53349556
   0.83644797  0.16707759  0.53349556
   0.16666667  0.49711623  0.53113180
   0.49689606  0.49968778  0.53351441
   0.83643727  0.49968778  0.53351441
   0.16666667  0.83330109  0.53290949
   0.49465001  0.83332884  0.53438531
   0.83868333  0.83332884  0.53438531
   0.99949153  0.00105625  0.59647495
   0.33384180  0.00105625  0.59647495
   0.66666667  0.00149793  0.59490808
   0.99994821  0.33330925  0.59689314
   0.33338513  0.33330925  0.59689314
   0.66666667  0.33328731  0.59476244
   0.99963234  0.66560812  0.59652731
   0.33370099  0.66560812  0.59652731
   0.66666667  0.66532536  0.59494106
   0.16666667  0.11990114  0.64122413
   0.16666667  0.14456760  0.68078940
   0.16666667  0.54696037  0.64097739
   0.16666667  0.52140620  0.68098629
Direct configuration=    15
   0.16666667  0.16666667  0.40785113
   0.50000000  0.16666667  0.40785113
   0.83333333  0.16666667  0.40785113
   0.16666667  0.50000000  0.40785113
   0.50000000  0.50000000  0.40785113
   0.83333333  0.50000000  0.40785113
   0.16666667  0.83333333  0.40785113
   0.50000000  0.83333333  0.40785113
   0.83333333  0.83333333  0.40785113
   0.00000000  0.00000000  0.46928371
   0.33333333  0.00000000  0.46928371
   0.66666667  0.00000000  0.46928371
   0.00000000  0.33333333  0.46928371
   0.33333333  0.33333333  0.46928371
   0.66666667  0.33333333  0.46928371
   0.00000000  0.66666667  0.46928371
   0.33333333  0.66666667  0.46928371
   0.66666667  0.66666667  0.46928371
   0.16666667  0.16928681  0.53120143
   0.49708616  0.16707079  0.53350550
   0.83624717  0.16707079  0.53350550
   0.16666667  0.49711380  0.53122284
   0.49709164  0.49969942  0.53352866
   0.83624170  0.49969942  0.53352866
   0.16666667  0.83328840  0.53290068
   0.49490459  0.83332428  0.53439015
   0.83842874  0.83332428  0.53439015
   0.99953112  0.00104896  0.59655304
   0.33380221  0.00104896  0.59655304
   0.66666667  0.00148391  0.59500174
   0.99988729  0.33330656  0.59684776
   0.33344604  0.33330656  0.59684776
   0.66666667  0.33329085  0.59485649
   0.99964990  0.66563098  0.59659845
   0.33368344  0.66563098  0.59659845
   0.66666667  0.66535317  0.59503499
   0.16666667  0.11919854  0.64130519
   0.16666667  0.14418009  0.68087225
   0.16666667  0.54764380  0.64107308
   0.16666667  0.52177474  0.68106167
Direct configuration=    16
   0.16666667  0.16666667  0.40785113
   0.50000000  0.16666667  0.40785113
   0.83333333  0.16666667  0.40785113
   0.16666667  0.50000000  0.40785113
   0.50000000  0.50000000  0.40785113
   0.83333333  0.50000000  0.40785113
   0.16666667  0.83333333  0.40785113
   0.50000000  0.83333333  0.40785113
   0.83333333  0.83333333  0.40785113
   0.00000000  0.00000000  0.46928371
   0.33333333  0.00000000  0.46928371
   0.66666667  0.00000000  0.46928371
   0.00000000  0.33333333  0.46928371
   0.33333333  0.33333333  0.46928371
   0.66666667  0.33333333  0.46928371
   0.00000000  0.66666667  0.46928371
   0.33333333  0.66666667  0.46928371
   0.66666667  0.66666667  0.46928371
   0.16666667  0.16926044  0.53147636
   0.49768854  0.16705042  0.53353534
   0.83564479  0.16705042  0.53353534
   0.16666667  0.49710649  0.53149597
   0.49767835  0.49973432  0.53357141
   0.83565498  0.49973432  0.53357141
   0.16666667  0.83325034  0.53287425
   0.49566834  0.83331058  0.53440469
   0.83766500  0.83331058  0.53440469
   0.99964988  0.00102707  0.59678732
   0.33368345  0.00102707  0.59678732
   0.66666667  0.00144184  0.59528271
   0.99970454  0.33329851  0.59671161
   0.33362879  0.33329851  0.59671161
   0.66666667  0.33330147  0.59513862
   0.99970257  0.66569954  0.59681185
   0.33363076  0.66569954  0.59681185
   0.66666667  0.66543659  0.59531677
   0.16666667  0.11709073  0.64154837
   0.16666667  0.14301756  0.68112079
   0.16666667  0.54969406  0.64136017
   0.16666667  0.52288037  0.68128778
Direct configuration=    17
   0.16666667  0.16666667  0.40785113
   0.50000000  0.16666667  0.40785113
   0.83333333  0.16666667  0.40785113
   0.16666667  0.50000000  0.40785113
   0.50000000  0.50000000  0.40785113
   0.83333333  0.50000000  0.40785113
   0.16666667  0.83333333  0.40785113
   0.50000000  0.83333333  0.40785113
   0.83333333  0.83333333  0.40785113
   0.00000000  0.00000000  0.46928371
   0.33333333  0.00000000  0.46928371
   0.66666667  0.00000000  0.46928371
   0.00000000  0.33333333  0.46928371
   0.33333333  0.33333333  0.46928371
   0.66666667  0.33333333  0.46928371
   0.00000000  0.66666667  0.46928371
   0.33333333  0.66666667  0.46928371
   0.66666667  0.66666667  0.46928371
   0.16666667  0.16920771  0.53202622
   0.49889331  0.16700968  0.53359500
   0.83444002  0.16700968  0.53359500
   0.16666667  0.49709187  0.53204221
   0.49885179  0.49980414  0.53365692
   0.83448155  0.49980414  0.53365692
   0.16666667  0.83317422  0.53282139
   0.49719583  0.83328318  0.53443375
   0.83613750  0.83328318  0.53443375
   0.99988740  0.00098329  0.59725587
   0.33344593  0.00098329  0.59725587
   0.66666667  0.00135772  0.59584466
   0.99933904  0.33328240  0.59643933
   0.33399429  0.33328240  0.59643933
   0.66666667  0.33332272  0.59570289
   0.99980792  0.66583667  0.59723867
   0.33352542  0.66583667  0.59723867
   0.66666667  0.66560345  0.59588032
   0.16666667  0.11287512  0.64203474
   0.16666667  0.14069249  0.68161788
   0.16666667  0.55379459  0.64193435
   0.16666667  0.52509161  0.68174001
Direct configuration=    18
   0.16666667  0.16666667  0.40785113
   0.50000000  0.16666667  0.40785113
   0.83333333  0.16666667  0.40785113
   0.16666667  0.50000000  0.40785113
   0.50000000  0.50000000  0.40785113
   0.83333333  0.50000000  0.40785113
   0.16666667  0.83333333  0.40785113
   0.50000000  0.83333333  0.40785113
   0.83333333  0.83333333  0.40785113
   0.00000000  0.00000000  0.46928371
   0.33333333  0.00000000  0.46928371
   0.66666667  0.00000000  0.46928371
   0.00000000  0.33333333  0.46928371
   0.33333333  0.33333333  0.46928371
   0.66666667  0.33333333  0.46928371
   0.00000000  0.66666667  0.46928371
   0.33333333  0.66666667  0.46928371
   0.66666667  0.66666667  0.46928371
   0.16666667  0.16910225  0.53312593
   0.50130284  0.16692819  0.53371433
   0.83203049  0.16692819  0.53371433
   0.16666667  0.49706264  0.53313469
   0.50119866  0.49994377  0.53382794
   0.83213467  0.49994377  0.53382794
   0.16666667  0.83302199  0.53271567
   0.50025082  0.83322839  0.53449188
   0.83308251  0.83322839  0.53449188
   0.00036244  0.00089573  0.59819297
   0.33297089  0.00089573  0.59819297
   0.66666667  0.00118948  0.59696856
   0.99860804  0.33325018  0.59589475
   0.33472529  0.33325018  0.59589475
   0.66666667  0.33336520  0.59683143
   0.00001861  0.66611094  0.59809230
   0.33331473  0.66611094  0.59809230
   0.66666667  0.66593715  0.59700744
   0.16666667  0.10444390  0.64300747
   0.16666667  0.13604235  0.68261204
   0.16666667  0.56199565  0.64308270
   0.16666667  0.52951410  0.68264446
Direct configuration=    19
   0.16666667  0.16666667  0.40785113
   0.50000000  0.16666667  0.40785113
   0.83333333  0.16666667  0.40785113
   0.16666667  0.50000000  0.40785113
   0.50000000  0.50000000  0.40785113
   0.83333333  0.50000000  0.40785113
   0.16666667  0.83333333  0.40785113
   0.50000000  0.83333333  0.40785113
   0.83333333  0.83333333  0.40785113
   0.00000000  0.00000000  0.46928371
   0.33333333  0.00000000  0.46928371
   0.66666667  0.00000000  0.46928371
   0.00000000  0.33333333  0.46928371
   0.33333333  0.33333333  0.46928371
   0.66666667  0.33333333  0.46928371
   0.00000000  0.66666667  0.46928371
   0.33333333  0.66666667  0.46928371
   0.66666667  0.66666667  0.46928371
   0.16666667  0.16913723  0.53276113
   0.50050355  0.16695522  0.53367475
   0.83282978  0.16695522  0.53367475
   0.16666667  0.49707233  0.53277229
   0.50042016  0.49989745  0.53377121
   0.83291318  0.49989745  0.53377121
   0.16666667  0.83307249  0.53275074
   0.49923742  0.83324657  0.53447260
   0.83409591  0.83324657  0.53447260
   0.00020486  0.00092477  0.59788212
   0.33312847  0.00092477  0.59788212
   0.66666667  0.00124529  0.59659574
   0.99885053  0.33326087  0.59607540
   0.33448280  0.33326087  0.59607540
   0.66666667  0.33335111  0.59645707
   0.99994872  0.66601996  0.59780913
   0.33338462  0.66601996  0.59780913
   0.66666667  0.66582646  0.59663356
   0.16666667  0.10724070  0.64268480
   0.16666667  0.13758489  0.68228226
   0.16666667  0.55927520  0.64270177
   0.16666667  0.52804707  0.68234443
Direct configuration=    20
   0.16666667  0.16666667  0.40785113
   0.50000000  0.16666667  0.40785113
   0.83333333  0.16666667  0.40785113
   0.16666667  0.50000000  0.40785113
   0.50000000  0.50000000  0.40785113
   0.83333333  0.50000000  0.40785113
   0.16666667  0.83333333  0.40785113
   0.50000000  0.83333333  0.40785113