       N       E                     dE             d eps       ncg     rms          rms(c)
DAV:   1     0.464350156393E+04    0.46435E+04   -0.17300E+05  2746   0.167E+03
DAV:   2     0.779380577296E+03   -0.38641E+04   -0.37081E+04  2746   0.423E+02
DAV:   3    -0.795807659789E+01   -0.78734E+03   -0.71484E+03  3868   0.223E+02
DAV:   4    -0.181555511070E+03   -0.17360E+03   -0.16605E+03  4460   0.101E+02
DAV:   5    -0.197174135625E+03   -0.15619E+02   -0.14137E+02  4356   0.328E+01    0.585E+01
DAV:   6    -0.189297126138E+03    0.78770E+01   -0.45190E+02  3473   0.145E+02    0.413E+01
DAV:   7    -0.168680645303E+03    0.20616E+02   -0.21436E+02  3692   0.177E+02    0.326E+01
DAV:   8    -0.151346033733E+03    0.17335E+02   -0.10083E+02  4394   0.107E+02    0.203E+01
DAV:   9    -0.145633385064E+03    0.57126E+01   -0.24839E+01  4260   0.528E+01    0.100E+01
DAV:  10    -0.146017507388E+03   -0.38412E+00   -0.16629E+01  3692   0.337E+01    0.747E+00
DAV:  11    -0.146210784233E+03   -0.19328E+00   -0.85503E+00  3156   0.431E+01    0.600E+00
DAV:  12    -0.145969166693E+03    0.24162E+00   -0.24426E+00  3916   0.188E+01    0.302E+00
DAV:  13    -0.145864949153E+03    0.10422E+00   -0.64846E-01  4644   0.835E+00    0.182E+00
DAV:  14    -0.145822424087E+03    0.42525E-01   -0.32620E-01  4020   0.511E+00    0.115E+00
DAV:  15    -0.145800475310E+03    0.21949E-01   -0.17539E-01  3396   0.347E+00    0.506E-01
DAV:  16    -0.145795269462E+03    0.52058E-02   -0.72597E-02  3428   0.193E+00    0.371E-01
DAV:  17    -0.145790011690E+03    0.52578E-02   -0.15623E-02  3428   0.142E+00    0.229E-01
DAV:  18    -0.145786195806E+03    0.38159E-02   -0.78131E-03  3540   0.998E-01    0.156E-01
DAV:  19    -0.145784439601E+03    0.17562E-02   -0.41885E-03  3820   0.417E-01    0.190E-01
DAV:  20    -0.145781694198E+03    0.27454E-02   -0.23318E-03  4068   0.506E-01    0.104E-01
DAV:  21    -0.145780907678E+03    0.78652E-03   -0.18202E-03  4260   0.365E-01    0.500E-02
DAV:  22    -0.145780588996E+03    0.31868E-03   -0.82014E-04  4220   0.172E-01    0.297E-02
DAV:  23    -0.145780785859E+03   -0.19686E-03   -0.80295E-04  4116   0.155E-01    0.279E-02
DAV:  24    -0.145780883009E+03   -0.97150E-04   -0.24930E-04  3828   0.134E-01    0.139E-02
DAV:  25    -0.145781074450E+03   -0.19144E-03   -0.74392E-05  4163   0.583E-02    0.150E-02
DAV:  26    -0.145781176449E+03   -0.10200E-03   -0.51923E-05  3587   0.573E-02    0.755E-03
DAV:  27    -0.145781263899E+03   -0.87449E-04   -0.10565E-05  3147   0.336E-02    0.395E-03
DAV:  28    -0.145781401681E+03   -0.13778E-03   -0.11275E-05  3211   0.213E-02    0.511E-03
DAV:  29    -0.145781444509E+03   -0.42828E-04   -0.21398E-06  2180   0.150E-02    0.386E-03
DAV:  30    -0.145781486543E+03   -0.42034E-04   -0.24245E-06  2098   0.133E-02    0.146E-03
DAV:  31    -0.145781514350E+03   -0.27807E-04   -0.88706E-07  1939   0.721E-03    0.118E-03
DAV:  32    -0.145781527092E+03   -0.12742E-04   -0.57771E-07  1939   0.646E-03    0.864E-04
DAV:  33    -0.145781533882E+03   -0.67909E-05   -0.28340E-07  1811   0.455E-03    0.586E-04
DAV:  34    -0.145781537710E+03   -0.38272E-05   -0.20615E-07  1763   0.243E-03    0.383E-04
DAV:  35    -0.145781539868E+03   -0.21585E-05   -0.11773E-07  1714   0.228E-03    0.326E-04
DAV:  36    -0.145781540842E+03   -0.97364E-06   -0.70970E-08  1643   0.182E-03
   1 F= -.14578154E+03 E0= -.14575158E+03  d E =-.145782E+03
       N       E                     dE             d eps       ncg     rms          rms(c)
DAV:   1    -0.107981284466E+03    0.37800E+02   -0.72444E+03  3690   0.148E+02    0.271E+01
DAV:   2    -0.200358067464E+03   -0.92377E+02   -0.87597E+02  4445   0.920E+01    0.278E+01
DAV:   3    -0.185154966475E+03    0.15203E+02   -0.12824E+02  3971   0.966E+01    0.278E+01
DAV:   4    -0.178298561773E+03    0.68564E+01   -0.24521E+01  4132   0.612E+01    0.231E+01
DAV:   5    -0.214826110925E+03   -0.36528E+02   -0.12077E+02  4036   0.469E+01    0.417E+01
DAV:   6    -0.193893553647E+03    0.20933E+02   -0.11184E+01  3900   0.329E+01    0.396E+01
DAV:   7    -0.181685864239E+03    0.12208E+02   -0.61624E+00  4236   0.289E+01    0.170E+01
DAV:   8    -0.174011198444E+03    0.76747E+01   -0.55183E+00  4044   0.293E+01    0.594E+00
DAV:   9    -0.174186369088E+03   -0.17517E+00   -0.35225E+00  3980   0.704E+00    0.769E+00
DAV:  10    -0.176041224280E+03   -0.18549E+01   -0.16819E+01  4284   0.452E+00    0.144E+01
DAV:  11    -0.173999853184E+03    0.20414E+01   -0.13827E+01  4492   0.859E+00    0.645E+00
DAV:  12    -0.174020500432E+03   -0.20647E-01   -0.23890E+00  3955   0.210E+00    0.616E+00
DAV:  13    -0.174062896034E+03   -0.42396E-01   -0.94031E-01  4684   0.255E+00    0.720E+00
DAV:  14    -0.173972762995E+03    0.90133E-01   -0.59763E-02  4092   0.710E-01    0.599E+00
DAV:  15    -0.173877603355E+03    0.95160E-01   -0.30724E-01  4020   0.121E+00    0.450E+00
DAV:  16    -0.173866294351E+03    0.11309E-01   -0.91371E-02  3828   0.113E+00    0.256E+00
DAV:  17    -0.173871727780E+03   -0.54334E-02   -0.43319E-02  4372   0.711E-01    0.118E+00
DAV:  18    -0.173876471572E+03   -0.47438E-02   -0.14084E-02  4404   0.507E-01    0.144E+00
DAV:  19    -0.173872891594E+03    0.35800E-02   -0.65298E-02  4116   0.403E-01    0.831E-01
DAV:  20    -0.173886922366E+03   -0.14031E-01   -0.97155E-02  3948   0.601E-01    0.190E+00
DAV:  21    -0.173874420045E+03    0.12502E-01   -0.36514E-02  3636   0.515E-01    0.426E-01
DAV:  22    -0.173876498385E+03   -0.20783E-02   -0.16570E-02  4060   0.283E-01    0.727E-01
DAV:  23    -0.173874805385E+03    0.16930E-02   -0.32735E-03  3884   0.117E-01    0.312E-01
DAV:  24    -0.173876305211E+03   -0.14998E-02   -0.74102E-04  4076   0.122E-01    0.487E-01
DAV:  25    -0.173876414563E+03   -0.10935E-03   -0.83534E-03  4324   0.122E-01    0.244E-01
DAV:  26    -0.173876626709E+03   -0.21215E-03   -0.10982E-03  3836   0.987E-02    0.807E-02
DAV:  27    -0.173876811744E+03   -0.18504E-03   -0.10217E-04  3580   0.493E-02    0.588E-02
DAV:  28    -0.173877009447E+03   -0.19770E-03   -0.41776E-05  3500   0.359E-02    0.687E-02
DAV:  29    -0.173877301049E+03   -0.29160E-03   -0.77685E-04  3428   0.385E-02    0.145E-01
DAV:  30    -0.173877365162E+03   -0.64113E-04   -0.20969E-04  3228   0.250E-02    0.472E-02
DAV:  31    -0.173877443740E+03   -0.78577E-04   -0.86583E-06  2364   0.189E-02    0.490E-02
DAV:  32    -0.173877495048E+03   -0.51309E-04   -0.32998E-05  2252   0.141E-02    0.997E-03
DAV:  33    -0.173877540121E+03   -0.45072E-04   -0.24810E-05  2356   0.118E-02    0.281E-02
DAV:  34    -0.173877551074E+03   -0.10953E-04   -0.16288E-05  1924   0.842E-03    0.346E-03
DAV:  35    -0.173877561256E+03   -0.10182E-04   -0.56990E-06  1836   0.700E-03    0.181E-02
DAV:  36    -0.173877564338E+03   -0.30822E-05   -0.13906E-05  1844   0.567E-03    0.996E-03
DAV:  37    -0.173877567932E+03   -0.35937E-05   -0.25813E-06  1732   0.408E-03    0.366E-03
DAV:  38    -0.173877569838E+03   -0.19065E-05   -0.49188E-07  1772   0.257E-03    0.487E-03
DAV:  39    -0.173877570859E+03   -0.10207E-05   -0.93822E-07  1564   0.256E-03    0.236E-03
DAV:  40    -0.173877572186E+03   -0.13275E-05   -0.18841E-07  1644   0.163E-03    0.453E-03
DAV:  41    -0.173877573175E+03   -0.98866E-06   -0.74642E-08  1564   0.166E-03
   2 F= -.17387757E+03 E0= -.17379358E+03  d E =-.280960E+02
       N       E                     dE             d eps       ncg     rms          rms(c)
DAV:   1    -0.169890290299E+03    0.39873E+01   -0.50451E+02  2810   0.337E+01    0.117E+01
DAV:   2    -0.183367189429E+03   -0.13477E+02   -0.81434E+01  5048   0.504E+01    0.387E+01
DAV:   3    -0.177074863717E+03    0.62923E+01   -0.53144E+01  4252   0.160E+01    0.190E+01
DAV:   4    -0.171531850154E+03    0.55430E+01   -0.10582E+01  3996   0.487E+01    0.701E+00
DAV:   5    -0.171166923027E+03    0.36493E+00   -0.18922E+00  4804   0.281E+01    0.630E+00
DAV:   6    -0.171222826789E+03   -0.55904E-01   -0.28340E+00  4212   0.900E+00    0.647E+00
DAV:   7    -0.172404175719E+03   -0.11813E+01   -0.86812E+00  3787   0.306E+00    0.226E+01
DAV:   8    -0.171121110830E+03    0.12831E+01   -0.44531E+00  3858   0.141E+00    0.401E+00
DAV:   9    -0.171083883364E+03    0.37227E-01   -0.45746E-01  3497   0.909E+00    0.239E+00
DAV:  10    -0.171075817041E+03    0.80663E-02   -0.12908E-01  4627   0.203E+00    0.598E-01
DAV:  11    -0.171080105114E+03   -0.42881E-02   -0.46557E-02  3452   0.131E+00    0.117E+00
DAV:  12    -0.171076135605E+03    0.39695E-02   -0.20653E-02  3548   0.101E+00    0.253E-01
DAV:  13    -0.171076528908E+03   -0.39330E-03   -0.50438E-03  3572   0.770E-01    0.321E-01
DAV:  14    -0.171076384396E+03    0.14451E-03   -0.21648E-03  3780   0.382E-01    0.226E-01
DAV:  15    -0.171076284435E+03    0.99960E-04   -0.66098E-04  3428   0.216E-01    0.999E-02
DAV:  16    -0.171076197978E+03    0.86457E-04   -0.21363E-04  3260   0.145E-01    0.245E-02
DAV:  17    -0.171076215175E+03   -0.17197E-04   -0.77078E-05  3844   0.589E-02    0.330E-02
DAV:  18    -0.171076221310E+03   -0.61353E-05   -0.28059E-05  3124   0.513E-02    0.143E-02
DAV:  19    -0.171076225926E+03   -0.46156E-05   -0.85867E-06  3124   0.358E-02    0.824E-03
DAV:  20    -0.171076231451E+03   -0.55252E-05   -0.25152E-06  2036   0.210E-02    0.654E-03
DAV:  21    -0.171076235397E+03   -0.39455E-05   -0.21708E-06  1764   0.911E-03    0.568E-03
DAV:  22    -0.171076237831E+03   -0.24340E-05   -0.86037E-07  1740   0.704E-03    0.252E-03
DAV:  23    -0.171076241821E+03   -0.39907E-05   -0.13373E-06  1796   0.600E-03    0.463E-03
DAV:  24    -0.171076244024E+03   -0.22025E-05   -0.30729E-07  1700   0.504E-03    0.424E-03
DAV:  25    -0.171076246733E+03   -0.27091E-05   -0.57158E-07  1716   0.371E-03    0.104E-03
DAV:  26    -0.171076248270E+03   -0.15373E-05   -0.27621E-07  1700   0.290E-03    0.102E-03
DAV:  27    -0.171076248909E+03   -0.63912E-06   -0.14700E-07  1676   0.221E-03
   3 F= -.17107625E+03 E0= -.17100093E+03  d E =-.252947E+02
       N       E                     dE             d eps       ncg     rms          rms(c)
DAV:   1    -0.172232921411E+03   -0.11567E+01   -0.69944E+01  2730   0.123E+01    0.253E+00
DAV:   2    -0.172625545558E+03   -0.39262E+00   -0.41973E+00  4468   0.120E+01    0.255E+00
DAV:   3    -0.173269040106E+03   -0.64349E+00   -0.51062E+00  4076   0.133E+01    0.939E+00
DAV:   4    -0.172567420317E+03    0.70162E+00   -0.18373E+00  3892   0.373E+00    0.166E+00
DAV:   5    -0.172566474244E+03    0.94607E-03   -0.91780E-02  3660   0.496E+00    0.165E+00
DAV:   6    -0.172608230104E+03   -0.41756E-01   -0.36550E-01  3836   0.883E-01    0.463E+00
DAV:   7    -0.172564397548E+03    0.43833E-01   -0.18407E-01  3908   0.283E+00    0.777E-01
DAV:   8    -0.172562935981E+03    0.14616E-02   -0.13160E-02  3571   0.317E+00    0.471E-01
DAV:   9    -0.172562592645E+03    0.34334E-03   -0.71272E-03  4684   0.550E-01    0.103E-01
DAV:  10    -0.172562533818E+03    0.58827E-04   -0.86396E-04  3828   0.194E-01    0.852E-02
DAV:  11    -0.172562554715E+03   -0.20897E-04   -0.44154E-04  3260   0.210E-01    0.865E-02
DAV:  12    -0.172562543328E+03    0.11387E-04   -0.17521E-04  3340   0.183E-01    0.462E-02
DAV:  13    -0.172562544924E+03   -0.15960E-05   -0.49152E-05  4132   0.581E-02    0.115E-02
DAV:  14    -0.172562549621E+03   -0.46973E-05   -0.10922E-05  3156   0.346E-02    0.828E-03
DAV:  15    -0.172562553825E+03   -0.42035E-05   -0.21412E-06  1900   0.158E-02    0.587E-03
DAV:  16    -0.172562559880E+03   -0.60549E-05   -0.34219E-06  1876   0.157E-02    0.871E-03
DAV:  17    -0.172562562403E+03   -0.25239E-05   -0.13071E-06  1732   0.991E-03    0.270E-03
DAV:  18    -0.172562565174E+03   -0.27708E-05   -0.74675E-07  1756   0.487E-03    0.207E-03
DAV:  19    -0.172562567170E+03   -0.19958E-05   -0.49028E-07  1684   0.351E-03    0.154E-03
DAV:  20    -0.172562569392E+03   -0.22215E-05   -0.29126E-07  1644   0.360E-03    0.921E-04
DAV:  21    -0.172562570783E+03   -0.13911E-05   -0.22353E-07  1676   0.267E-03    0.129E-03
DAV:  22    -0.172562572090E+03   -0.13070E-05   -0.26029E-07  1708   0.177E-03    0.620E-04
DAV:  23    -0.172562572606E+03   -0.51683E-06   -0.94494E-08  1676   0.164E-03
   4 F= -.17256257E+03 E0= -.17248625E+03  d E =-.267810E+02
       N       E                     dE             d eps       ncg     rms          rms(c)
DAV:   1    -0.173673644304E+03   -0.11111E+01   -0.52570E+01  2730   0.107E+01    0.233E+00
DAV:   2    -0.174014145977E+03   -0.34050E+00   -0.37295E+00  4739   0.133E+01    0.570E+00
DAV:   3    -0.174344632912E+03   -0.33049E+00   -0.74578E+00  4188   0.433E+00    0.111E+01
DAV:   4    -0.173846486431E+03    0.49815E+00   -0.42129E+00  3651   0.109E+01    0.203E+00
DAV:   5    -0.173845775592E+03    0.71084E-03   -0.14235E-01  4228   0.590E+00    0.743E-01
DAV:   6    -0.173848735720E+03   -0.29601E-02   -0.70821E-02  4027   0.555E+00    0.108E+00
DAV:   7    -0.173950756938E+03   -0.10202E+00   -0.70199E-01  4212   0.190E+00    0.742E+00
DAV:   8    -0.173829485853E+03    0.12127E+00   -0.44684E-01  4579   0.164E+00    0.362E-01
DAV:   9    -0.173840999312E+03   -0.11513E-01   -0.83129E-03  3730   0.762E-01    0.268E-01
DAV:  10    -0.173841318493E+03   -0.31918E-03   -0.25251E-03  3220   0.504E-01    0.195E-01
DAV:  11    -0.173841234055E+03    0.84438E-04   -0.68395E-04  3508   0.178E-01    0.655E-02
DAV:  12    -0.173841309345E+03   -0.75290E-04   -0.39357E-04  3284   0.229E-01    0.558E-02
DAV:  13    -0.173841311274E+03   -0.19292E-05   -0.82120E-05  3276   0.135E-01    0.363E-02
DAV:  14    -0.173841309458E+03    0.18163E-05   -0.34208E-05  3284   0.433E-02    0.176E-02
DAV:  15    -0.173841311737E+03   -0.22791E-05   -0.50794E-06  2508   0.317E-02    0.847E-03
DAV:  16    -0.173841313258E+03   -0.15207E-05   -0.26249E-06  1836   0.136E-02    0.348E-03
DAV:  17    -0.173841315046E+03   -0.17889E-05   -0.18143E-06  1796   0.152E-02    0.285E-03
DAV:  18    -0.173841315971E+03   -0.92475E-06   -0.42595E-07  1660   0.503E-03
   5 F= -.17384132E+03 E0= -.17375941E+03  d E =-.280598E+02
       N       E                     dE             d eps       ncg     rms          rms(c)
DAV:   1    -0.174148785897E+03   -0.30747E+00   -0.15162E+01  2730   0.580E+00    0.158E+00
DAV:   2    -0.174294519306E+03   -0.14573E+00   -0.15324E+00  4739   0.786E+00    0.541E+00
DAV:   3    -0.174298047500E+03   -0.35282E-02   -0.30323E+00  4148   0.210E+00    0.593E+00
DAV:   4    -0.174167305158E+03    0.13074E+00   -0.12339E+00  3411   0.809E+00    0.151E+00
DAV:   5    -0.174169442092E+03   -0.21369E-02   -0.10339E-01  4244   0.389E+00    0.208E+00
DAV:   6    -0.174186741100E+03   -0.17299E-01   -0.34267E-01  4100   0.678E-01    0.371E+00
DAV:   7    -0.174160995531E+03    0.25746E-01   -0.14240E-01  3476   0.315E+00    0.502E-01
DAV:   8    -0.174161080423E+03   -0.84892E-04   -0.12126E-02  4124   0.214E+00    0.259E-01
DAV:   9    -0.174161178432E+03   -0.98009E-04   -0.21178E-03  4324   0.518E-01    0.136E-01
DAV:  10    -0.174161153320E+03    0.25112E-04   -0.55719E-04  3236   0.132E-01    0.143E-01
DAV:  11    -0.174161118727E+03    0.34593E-04   -0.29691E-04  3436   0.148E-01    0.583E-02
DAV:  12    -0.174161127632E+03   -0.89049E-05   -0.59090E-05  3508   0.108E-01    0.375E-02
DAV:  13    -0.174161127933E+03   -0.30134E-06   -0.22200E-05  3540   0.541E-02    0.142E-02
DAV:  14    -0.174161128812E+03   -0.87847E-06   -0.77839E-06  2932   0.164E-02
   6 F= -.17416113E+03 E0= -.17407778E+03  d E =-.283796E+02
       N       E                     dE             d eps       ncg     rms          rms(c)
DAV:   1     0.157306639589E+03    0.33147E+03   -0.15310E+04  3549   0.244E+02    0.165E+02
DAV:   2    -0.826456793192E+03   -0.98376E+03   -0.80202E+03  5375   0.266E+02    0.418E+02
DAV:   3    -0.278252514707E+04   -0.19561E+04   -0.66396E+03  5028   0.259E+02    0.492E+02
DAV:   4    -0.190382849375E+03    0.25921E+04   -0.18735E+04  4901   0.399E+02    0.555E+02
DAV:   5    -0.626146648582E+03   -0.43576E+03   -0.55751E+03  3479   0.215E+02    0.631E+02
DAV:   6    -0.262224627881E+03    0.36392E+03   -0.15971E+03  4132   0.239E+02    0.219E+02
DAV:   7    -0.225012889618E+03    0.37212E+02   -0.94832E+02  3516   0.321E+02    0.221E+02
DAV:   8    -0.190465133278E+03    0.34548E+02   -0.12844E+03  4860   0.172E+02    0.169E+02
DAV:   9    -0.244286082903E+03   -0.53821E+02   -0.83102E+02  4508   0.927E+01    0.165E+02
DAV:  10    -0.235487817069E+03    0.87983E+01   -0.12370E+02  4212   0.471E+01    0.168E+02
DAV:  11    -0.196972674636E+03    0.38515E+02   -0.77110E+01  4412   0.672E+01    0.174E+02
DAV:  12    -0.159422852356E+03    0.37550E+02   -0.37410E+01  4900   0.461E+01    0.159E+02
DAV:  13    -0.135295741533E+03    0.24127E+02   -0.20343E+01  4620   0.264E+01    0.138E+02
DAV:  14    -0.126238369460E+03    0.90574E+01   -0.49584E+00  4388   0.154E+01    0.133E+02
DAV:  15    -0.115775467058E+03    0.10463E+02   -0.67722E+00  4324   0.247E+01    0.135E+02
DAV:  16    -0.107571254107E+03    0.82042E+01   -0.16103E+01  4316   0.375E+01    0.137E+02
DAV:  17    -0.965913248489E+02    0.10980E+02   -0.16985E+01  4940   0.377E+01    0.128E+02
DAV:  18    -0.649297414412E+02    0.31662E+02   -0.47267E+01  4220   0.674E+01    0.109E+02
DAV:  19    -0.343468315729E+02    0.30583E+02   -0.83760E+01  4940   0.846E+01    0.799E+01
DAV:  20    -0.222109991284E+02    0.12136E+02   -0.52119E+01  4756   0.625E+01    0.803E+01
DAV:  21    -0.110767358575E+02    0.11134E+02   -0.29375E+01  4564   0.558E+01    0.679E+01
DAV:  22    -0.526176210691E+01    0.58150E+01   -0.22336E+01  4244   0.387E+01    0.577E+01
DAV:  23    -0.346661250695E+01    0.17951E+01   -0.12319E+01  4108   0.269E+01    0.524E+01
DAV:  24    -0.384072442283E+01   -0.37411E+00   -0.31352E+00  3715   0.211E+01    0.536E+01
DAV:  25    -0.746566900669E+01   -0.36249E+01   -0.60216E+00  4852   0.260E+01    0.638E+01
DAV:  26    -0.379517457279E+01    0.36705E+01   -0.10753E+01  4468   0.303E+01    0.615E+01
DAV:  27     0.336650459270E+00    0.41318E+01   -0.80123E+00  3812   0.298E+01    0.581E+01
DAV:  28    -0.184016843536E+01   -0.21768E+01   -0.13107E+01  3956   0.123E+01    0.631E+01
DAV:  29    -0.574243786512E+00    0.12659E+01   -0.31806E+00  4604   0.181E+01    0.641E+01
DAV:  30     0.217793666595E+01    0.27522E+01   -0.62448E+00  4131   0.222E+01    0.587E+01
DAV:  31     0.345185771259E+01    0.12739E+01   -0.10233E+01  4124   0.103E+01    0.599E+01
DAV:  32     0.525427976320E+01    0.18024E+01   -0.13735E+00  3772   0.714E+00    0.573E+01
DAV:  33     0.695469615958E+01    0.17004E+01   -0.13962E+00  3996   0.436E+00    0.569E+01
DAV:  34     0.768283721100E+01    0.72814E+00   -0.64505E-01  3156   0.190E+00    0.555E+01
DAV:  35     0.990169375960E+01    0.22189E+01   -0.21502E+00  4252   0.679E+00    0.556E+01
DAV:  36     0.119843918166E+02    0.20827E+01   -0.21182E+00  4404   0.534E+00    0.545E+01
DAV:  37     0.188442341705E+02    0.68598E+01   -0.11676E+01  3580   0.111E+01    0.524E+01
DAV:  38     0.230692007835E+02    0.42250E+01   -0.65050E+00  3508   0.110E+01    0.480E+01
DAV:  39     0.264887953748E+02    0.34196E+01   -0.19316E+00  3556   0.971E+00    0.429E+01
DAV:  40     0.284851358269E+02    0.19963E+01   -0.21730E+00  3308   0.714E+00    0.424E+01
DAV:  41     0.287219230768E+02    0.23679E+00   -0.65842E-01  2924   0.334E+00    0.418E+01
DAV:  42     0.323707783752E+02    0.36489E+01   -0.46575E+00  3652   0.156E+01    0.361E+01
DAV:  43     0.350020725602E+02    0.26313E+01   -0.13743E+00  4132   0.104E+01    0.308E+01
DAV:  44     0.372749429647E+02    0.22729E+01   -0.25367E+00  3852   0.147E+01    0.281E+01
DAV:  45     0.379195085923E+02    0.64457E+00   -0.16377E+00  3236   0.564E+00    0.262E+01
DAV:  46     0.402902279008E+02    0.23707E+01   -0.78840E-01  4979   0.993E+00    0.219E+01
DAV:  47     0.431379567410E+02    0.28477E+01   -0.78424E+00  3308   0.331E+01    0.177E+01
DAV:  48     0.432300184778E+02    0.92062E-01   -0.34614E+00  3244   0.710E+00    0.143E+01
DAV:  49     0.433556348759E+02    0.12562E+00   -0.13370E-01  3324   0.152E+00    0.131E+01
DAV:  50     0.437383204504E+02    0.38269E+00   -0.31439E-01  4116   0.297E+00    0.119E+01
DAV:  51     0.446075366680E+02    0.86922E+00   -0.90926E-01  3844   0.658E+00    0.122E+01
DAV:  52     0.389201830477E+02   -0.56874E+01   -0.30124E+01  3684   0.660E+01    0.381E+01
DAV:  53     0.413164055186E+02    0.23962E+01   -0.53027E+00  4044   0.364E+01    0.356E+01
DAV:  54     0.443427925815E+02    0.30264E+01   -0.21903E+00  4628   0.114E+01    0.294E+01
DAV:  55     0.471608408981E+02    0.28180E+01   -0.35435E+00  4724   0.983E+00    0.161E+01
DAV:  56     0.476200782809E+02    0.45924E+00   -0.26294E+00  3356   0.769E+00    0.149E+01
DAV:  57     0.482373912041E+02    0.61731E+00   -0.38827E+00  3508   0.256E+01    0.166E+01
DAV:  58     0.483545179940E+02    0.11713E+00   -0.10611E+00  4242   0.174E+01    0.108E+01
DAV:  59     0.482950871509E+02   -0.59431E-01   -0.12894E+00  4724   0.527E+00    0.884E+00
DAV:  60     0.485703242108E+02    0.27524E+00   -0.38083E-01  3124   0.578E+00    0.893E+00
DAV:  61     0.485830173768E+02    0.12693E-01   -0.22654E-01  3484   0.270E+00    0.107E+01
DAV:  62     0.493990143539E+02    0.81600E+00   -0.13530E+00  3412   0.170E+01    0.705E+00
DAV:  63     0.496977212862E+02    0.29871E+00   -0.50331E-01  3684   0.894E+00    0.546E+00
DAV:  64     0.500040456582E+02    0.30632E+00   -0.24449E-01  3404   0.482E+00    0.457E+00
DAV:  65     0.502233315163E+02    0.21929E+00   -0.16928E-01  3556   0.376E+00    0.464E+00
DAV:  66     0.503294473313E+02    0.10612E+00   -0.13908E-01  3260   0.308E+00    0.477E+00
DAV:  67     0.504168705291E+02    0.87423E-01   -0.15397E-01  3500   0.428E+00    0.294E+00
DAV:  68     0.504348014403E+02    0.17931E-01   -0.45717E-02  3708   0.278E+00    0.214E+00
DAV:  69     0.504576160975E+02    0.22815E-01   -0.29241E-02  3628   0.175E+00    0.130E+00
DAV:  70     0.504592500186E+02    0.16339E-02   -0.25589E-02  3700   0.130E+00    0.833E-01
DAV:  71     0.504564786291E+02   -0.27714E-02   -0.14787E-02  3188   0.978E-01    0.606E-01
DAV:  72     0.504515428927E+02   -0.49357E-02   -0.94225E-03  3572   0.100E+00    0.752E-01
DAV:  73     0.504497006792E+02   -0.18422E-02   -0.55063E-03  3484   0.720E-01    0.694E-01
DAV:  74     0.504477587731E+02   -0.19419E-02   -0.37977E-03  4564   0.587E-01    0.385E-01
DAV:  75     0.504460521591E+02   -0.17066E-02   -0.19970E-03  3932   0.302E-01    0.443E-01
DAV:  76     0.504439090614E+02   -0.21431E-02   -0.17960E-03  3260   0.324E-01    0.612E-01
DAV:  77     0.504429459581E+02   -0.96310E-03   -0.11026E-03  3316   0.287E-01    0.537E-01
DAV:  78     0.504412174731E+02   -0.17285E-02   -0.14370E-03  3091   0.242E-01    0.405E-01
DAV:  79     0.504407543884E+02   -0.46308E-03   -0.45629E-04  3340   0.189E-01    0.250E-01
DAV:  80     0.504393362619E+02   -0.14181E-02   -0.40321E-04  3426   0.162E-01    0.138E-01
DAV:  81     0.504384992587E+02   -0.83700E-03   -0.19332E-04  3475   0.109E-01    0.979E-02
DAV:  82     0.504379838754E+02   -0.51538E-03   -0.22578E-04  3306   0.118E-01    0.798E-02
DAV:  83     0.504372126828E+02   -0.77119E-03   -0.13819E-04  3371   0.903E-02    0.603E-02
DAV:  84     0.504366828065E+02   -0.52988E-03   -0.60425E-05  3458   0.499E-02    0.425E-02
DAV:  85     0.504363559438E+02   -0.32686E-03   -0.40753E-05  3376   0.585E-02    0.481E-02
DAV:  86     0.504361365418E+02   -0.21940E-03   -0.17029E-05  3515   0.231E-02    0.508E-02
DAV:  87     0.504360741788E+02   -0.62363E-04   -0.33430E-05  3177   0.414E-02    0.339E-02
DAV:  88     0.504359901778E+02   -0.84001E-04   -0.14198E-05  3068   0.305E-02    0.273E-02
DAV:  89     0.504359322648E+02   -0.57913E-04   -0.69614E-06  2521   0.196E-02    0.181E-02
DAV:  90     0.504359039315E+02   -0.28333E-04   -0.31953E-06  2083   0.128E-02    0.113E-02
DAV:  91     0.504358882806E+02   -0.15651E-04   -0.19233E-06  1739   0.858E-03    0.570E-03
DAV:  92     0.504358787574E+02   -0.95231E-05   -0.15067E-06  1732   0.103E-02    0.811E-03
DAV:  93     0.504358755521E+02   -0.32053E-05   -0.14080E-06  1596   0.783E-03    0.298E-03
DAV:  94     0.504358709682E+02   -0.45839E-05   -0.66589E-07  1642   0.502E-03    0.209E-03
DAV:  95     0.504358704943E+02   -0.47387E-06   -0.34664E-07  1500   0.372E-03
   7 F= 0.50435870E+02 E0= 0.50585639E+02  d E =0.224597E+03
       N       E                     dE             d eps       ncg     rms          rms(c)
DAV:   1    -0.598902845581E+02   -0.11033E+03   -0.81394E+03  3374   0.169E+02    0.158E+02
DAV:   2    -0.380404083960E+03   -0.32051E+03   -0.15576E+03  4891   0.178E+02    0.128E+02
DAV:   3    -0.549097096809E+03   -0.16869E+03   -0.41241E+03  4528   0.436E+02    0.120E+02
DAV:   4    -0.245103195359E+03    0.30399E+03   -0.15459E+03  3876   0.268E+02    0.788E+01
DAV:   5    -0.194100734478E+03    0.51002E+02   -0.85126E+02  4083   0.120E+02    0.518E+01
DAV:   6    -0.182658022733E+03    0.11443E+02   -0.23761E+02  3988   0.768E+01    0.447E+01
DAV:   7    -0.183434441599E+03   -0.77642E+00   -0.21771E+02  4492   0.790E+01    0.365E+01
DAV:   8    -0.161689371797E+03    0.21745E+02   -0.44296E+01  4148   0.618E+01    0.199E+01
DAV:   9    -0.159838867496E+03    0.18505E+01   -0.38643E+01  3948   0.388E+01    0.158E+01
DAV:  10    -0.158437754414E+03    0.14011E+01   -0.97105E+00  4356   0.171E+01    0.169E+01
DAV:  11    -0.158754811388E+03   -0.31706E+00   -0.13729E+01  3628   0.558E+00    0.219E+01
DAV:  12    -0.157262071726E+03    0.14927E+01   -0.83461E+00  5172   0.527E+00    0.613E+00
DAV:  13    -0.157159129549E+03    0.10294E+00   -0.46512E-01  4212   0.318E+00    0.448E+00
DAV:  14    -0.157364428845E+03   -0.20530E+00   -0.16722E+00  4092   0.840E+00    0.665E+00
DAV:  15    -0.157064846019E+03    0.29958E+00   -0.28390E+00  4556   0.975E+00    0.679E+00
DAV:  16    -0.156903528945E+03    0.16132E+00   -0.21386E+00  4108   0.560E+00    0.318E+00
DAV:  17    -0.156883347165E+03    0.20182E-01   -0.91794E-01  4148   0.617E+00    0.397E+00
DAV:  18    -0.156820681905E+03    0.62665E-01   -0.28534E-01  4092   0.297E+00    0.158E+00
DAV:  19    -0.156816046120E+03    0.46358E-02   -0.36965E-02  3908   0.126E+00    0.120E+00
DAV:  20    -0.156807208844E+03    0.88373E-02   -0.27100E-02  3748   0.954E-01    0.506E-01
DAV:  21    -0.156801387476E+03    0.58214E-02   -0.83786E-03  3692   0.105E+00    0.250E-01
DAV:  22    -0.156794814715E+03    0.65728E-02   -0.80714E-03  4156   0.793E-01    0.501E-01
DAV:  23    -0.156792070534E+03    0.27442E-02   -0.37462E-03  3732   0.614E-01    0.509E-01
DAV:  24    -0.156791164874E+03    0.90566E-03   -0.28686E-03  3236   0.381E-01    0.237E-01
DAV:  25    -0.156791301233E+03   -0.13636E-03   -0.28722E-03  4148   0.428E-01    0.250E-01
DAV:  26    -0.156791606305E+03   -0.30507E-03   -0.87125E-04  3948   0.216E-01    0.134E-01
DAV:  27    -0.156793350000E+03   -0.17437E-02   -0.54189E-04  3716   0.240E-01    0.144E-01
DAV:  28    -0.156794825982E+03   -0.14760E-02   -0.39402E-04  3756   0.195E-01    0.894E-02
DAV:  29    -0.156795758038E+03   -0.93206E-03   -0.20402E-04  3980   0.116E-01    0.543E-02
DAV:  30    -0.156796667513E+03   -0.90947E-03   -0.93338E-05  3804   0.741E-02    0.292E-02
DAV:  31    -0.156797160526E+03   -0.49301E-03   -0.84903E-05  3692   0.709E-02    0.227E-02
DAV:  32    -0.156797446386E+03   -0.28586E-03   -0.26536E-05  3492   0.375E-02    0.163E-02
DAV:  33    -0.156797728394E+03   -0.28201E-03   -0.17906E-05  3084   0.248E-02    0.179E-02
DAV:  34    -0.156797907321E+03   -0.17893E-03   -0.13811E-05  3092   0.244E-02    0.165E-02
DAV:  35    -0.156798056796E+03   -0.14948E-03   -0.11541E-05  3028   0.166E-02    0.118E-02
DAV:  36    -0.156798139692E+03   -0.82897E-04   -0.61885E-06  2428   0.111E-02    0.722E-03
DAV:  37    -0.156798202451E+03   -0.62758E-04   -0.43414E-06  2524   0.124E-02    0.886E-03
DAV:  38    -0.156798243805E+03   -0.41354E-04   -0.21668E-06  2124   0.952E-03    0.544E-03
DAV:  39    -0.156798266489E+03   -0.22685E-04   -0.11530E-06  1836   0.659E-03    0.222E-03
DAV:  40    -0.156798282989E+03   -0.16499E-04   -0.72580E-07  1756   0.618E-03    0.150E-03
DAV:  41    -0.156798294051E+03   -0.11062E-04   -0.48215E-07  1692   0.337E-03    0.214E-03
DAV:  42    -0.156798305721E+03   -0.11671E-04   -0.35334E-07  1684   0.358E-03    0.116E-03
DAV:  43    -0.156798310734E+03   -0.50128E-05   -0.22917E-07  1732   0.318E-03    0.102E-03
DAV:  44    -0.156798312867E+03   -0.21331E-05   -0.12766E-07  1652   0.183E-03    0.687E-04
DAV:  45    -0.156798314408E+03   -0.15412E-05   -0.67882E-08  1572   0.137E-03    0.817E-04
DAV:  46    -0.156798315427E+03   -0.10185E-05   -0.44609E-08  1572   0.116E-03    0.632E-04
DAV:  47    -0.156798315735E+03   -0.30844E-06   -0.22589E-08  1516   0.732E-04
   8 F= -.15679832E+03 E0= -.15671226E+03  d E =0.173628E+02
       N       E                     dE             d eps       ncg     rms          rms(c)
DAV:   1    -0.168227496144E+03   -0.11429E+02   -0.50864E+02  2730   0.370E+01    0.733E+00
DAV:   2    -0.172127359372E+03   -0.38999E+01   -0.41060E+01  4084   0.191E+01    0.235E+01
DAV:   3    -0.171360314946E+03    0.76704E+00   -0.40137E+01  4332   0.958E+00    0.132E+01
DAV:   4    -0.170183552694E+03    0.11768E+01   -0.65471E+00  3836   0.232E+01    0.435E+00
DAV:   5    -0.170220660395E+03   -0.37108E-01   -0.10788E+00  3852   0.151E+01    0.605E+00
DAV:   6    -0.170479590476E+03   -0.25893E+00   -0.24889E+00  4164   0.272E+00    0.107E+01
DAV:   7    -0.170059275885E+03    0.42031E+00   -0.79054E-01  4324   0.890E+00    0.202E+00
DAV:   8    -0.170056303507E+03    0.29724E-02   -0.21084E-01  4132   0.808E+00    0.136E+00
DAV:   9    -0.170055744125E+03    0.55938E-03   -0.56891E-02  4300   0.284E+00    0.149E+00
DAV:  10    -0.170050911312E+03    0.48328E-02   -0.22407E-02  3492   0.890E-01    0.809E-01
DAV:  11    -0.170051978313E+03   -0.10670E-02   -0.11438E-02  3668   0.130E+00    0.477E-01
DAV:  12    -0.170052465019E+03   -0.48671E-03   -0.59681E-03  3908   0.539E-01    0.147E-01
DAV:  13    -0.170052632025E+03   -0.16701E-03   -0.78090E-04  3740   0.404E-01    0.618E-02
DAV:  14    -0.170052842939E+03   -0.21091E-03   -0.28679E-04  4020   0.127E-01    0.557E-02
DAV:  15    -0.170053029131E+03   -0.18619E-03   -0.11282E-04  3364   0.831E-02    0.344E-02
DAV:  16    -0.170053218931E+03   -0.18980E-03   -0.38986E-05  3492   0.764E-02    0.201E-02
DAV:  17    -0.170053352124E+03   -0.13319E-03   -0.17963E-05  3595   0.425E-02    0.968E-03
DAV:  18    -0.170053505151E+03   -0.15303E-03   -0.12468E-05  2980   0.272E-02    0.892E-03
DAV:  19    -0.170053628304E+03   -0.12315E-03   -0.66388E-06  2651   0.162E-02    0.637E-03
DAV:  20    -0.170053738492E+03   -0.11019E-03   -0.79131E-06  2732   0.211E-02    0.631E-03
DAV:  21    -0.170053786683E+03   -0.48191E-04   -0.31054E-06  2492   0.124E-02    0.323E-03
DAV:  22    -0.170053816208E+03   -0.29524E-04   -0.15318E-06  1932   0.779E-03    0.501E-03
DAV:  23    -0.170053829949E+03   -0.13741E-04   -0.63316E-07  1740   0.781E-03    0.299E-03
DAV:  24    -0.170053844761E+03   -0.14812E-04   -0.11400E-06  1827   0.442E-03    0.282E-03
DAV:  25    -0.170053848742E+03   -0.39811E-05   -0.27427E-07  1540   0.338E-03    0.120E-03
DAV:  26    -0.170053854282E+03   -0.55400E-05   -0.26247E-07  1643   0.241E-03    0.163E-03
DAV:  27    -0.170053857102E+03   -0.28202E-05   -0.12223E-07  1492   0.253E-03    0.736E-04
DAV:  28    -0.170053859163E+03   -0.20610E-05   -0.90846E-08  1484   0.174E-03    0.892E-04
DAV:  29    -0.170053860914E+03   -0.17507E-05   -0.62940E-08  1524   0.113E-03    0.291E-04
DAV:  30    -0.170053861990E+03   -0.10766E-05   -0.39256E-08  1500   0.103E-03    0.197E-04
DAV:  31    -0.170053862662E+03   -0.67183E-06   -0.26563E-08  1476   0.942E-04
   9 F= -.17005386E+03 E0= -.16997143E+03  d E =0.410727E+01
       N       E                     dE             d eps       ncg     rms          rms(c)
DAV:   1    -0.177017600456E+03   -0.69637E+01   -0.35463E+02  2731   0.292E+01    0.713E+00
DAV:   2    -0.180495807831E+03   -0.34782E+01   -0.33271E+01  4104   0.156E+01    0.251E+01
DAV:   3    -0.179257738305E+03    0.12381E+01   -0.41648E+01  4586   0.894E+00    0.119E+01
DAV:   4    -0.178187533628E+03    0.10702E+01   -0.30408E+00  3592   0.215E+01    0.511E+00
DAV:   5    -0.178156527527E+03    0.31006E-01   -0.53299E-01  3610   0.188E+01    0.489E+00
DAV:   6    -0.178966737989E+03   -0.81021E+00   -0.29965E+00  4386   0.939E+00    0.198E+01
DAV:   7    -0.177988264831E+03    0.97847E+00   -0.38585E+00  4468   0.562E+00    0.313E+00
DAV:   8    -0.178005261123E+03   -0.16996E-01   -0.30039E-01  3820   0.751E+00    0.147E+00
DAV:   9    -0.178015069964E+03   -0.98088E-02   -0.10071E-01  3868   0.212E+00    0.183E+00
DAV:  10    -0.178004218397E+03    0.10852E-01   -0.30817E-02  3532   0.107E+00    0.684E-01
DAV:  11    -0.178005351369E+03   -0.11330E-02   -0.15128E-02  3508   0.107E+00    0.282E-01
DAV:  12    -0.178005461066E+03   -0.10970E-03   -0.23224E-03  3644   0.508E-01    0.338E-01
DAV:  13    -0.178005132902E+03    0.32816E-03   -0.22937E-03  3748   0.250E-01    0.393E-02
DAV:  14    -0.178005548215E+03   -0.41531E-03   -0.31185E-04  3524   0.222E-01    0.481E-02
DAV:  15    -0.178005820137E+03   -0.27192E-03   -0.14104E-04  3716   0.153E-01    0.235E-02
DAV:  16    -0.178006185007E+03   -0.36487E-03   -0.70881E-05  3860   0.884E-02    0.206E-02
DAV:  17    -0.178006596259E+03   -0.41125E-03   -0.62057E-05  3588   0.583E-02    0.142E-02
DAV:  18    -0.178006785750E+03   -0.18949E-03   -0.22670E-05  3524   0.547E-02    0.867E-03
DAV:  19    -0.178006924631E+03   -0.13888E-03   -0.85853E-06  2948   0.198E-02    0.583E-03
DAV:  20    -0.178007069598E+03   -0.14497E-03   -0.73734E-06  2628   0.180E-02    0.464E-03
DAV:  21    -0.178007124633E+03   -0.55034E-04   -0.25719E-06  2444   0.161E-02    0.349E-03
DAV:  22    -0.178007158498E+03   -0.33865E-04   -0.10497E-06  1964   0.115E-02    0.302E-03
DAV:  23    -0.178007188124E+03   -0.29626E-04   -0.15863E-06  1988   0.538E-03    0.477E-03
DAV:  24    -0.178007207664E+03   -0.19540E-04   -0.62500E-07  1780   0.570E-03    0.168E-03
DAV:  25    -0.178007215804E+03   -0.81404E-05   -0.31618E-07  1636   0.476E-03    0.766E-04
DAV:  26    -0.178007223797E+03   -0.79926E-05   -0.24933E-07  1708   0.294E-03    0.888E-04
DAV:  27    -0.178007228083E+03   -0.42859E-05   -0.14662E-07  1604   0.211E-03    0.490E-04
DAV:  28    -0.178007231552E+03   -0.34696E-05   -0.88634E-08  1668   0.186E-03    0.310E-04
DAV:  29    -0.178007233468E+03   -0.19153E-05   -0.55381E-08  1580   0.165E-03    0.215E-04
DAV:  30    -0.178007235010E+03   -0.15428E-05   -0.40118E-08  1636   0.107E-03    0.180E-04
DAV:  31    -0.178007236033E+03   -0.10225E-05   -0.28069E-08  1612   0.839E-04    0.155E-04
DAV:  32    -0.178007236398E+03   -0.36490E-06   -0.16440E-08  1588   0.753E-04
  10 F= -.17800724E+03 E0= -.17792323E+03  d E =-.384611E+01
       N       E                     dE             d eps       ncg     rms          rms(c)
DAV:   1    -0.178522164441E+03   -0.51493E+00   -0.97599E+01  2730   0.147E+01    0.425E+00
DAV:   2    -0.179128387768E+03   -0.60622E+00   -0.70784E+00  4268   0.752E+00    0.106E+01
DAV:   3    -0.179237861893E+03   -0.10947E+00   -0.12305E+01  4604   0.439E+00    0.954E+00
DAV:   4    -0.178712482299E+03    0.52538E+00   -0.18189E+00  3468   0.134E+01    0.322E+00
DAV:   5    -0.178697314251E+03    0.15168E-01   -0.29263E-01  3440   0.105E+01    0.389E+00
DAV:   6    -0.178905470840E+03   -0.20816E+00   -0.18329E+00  4188   0.111E+00    0.978E+00
DAV:   7    -0.178643564674E+03    0.26191E+00   -0.47578E-01  3900   0.437E+00    0.716E-01
DAV:   8    -0.178657305893E+03   -0.13741E-01   -0.19901E-02  3820   0.320E+00    0.430E-01
DAV:   9    -0.178659723447E+03   -0.24176E-02   -0.18387E-02  3772   0.181E+00    0.870E-01
DAV:  10    -0.178657513053E+03    0.22104E-02   -0.85789E-03  4140   0.647E-01    0.267E-01
DAV:  11    -0.178658134967E+03   -0.62191E-03   -0.15921E-03  3492   0.328E-01    0.904E-02
DAV:  12    -0.178658227889E+03   -0.92922E-04   -0.54984E-04  3444   0.266E-01    0.531E-02
DAV:  13    -0.178658389239E+03   -0.16135E-03   -0.13675E-04  4100   0.118E-01    0.214E-02
DAV:  14    -0.178658638489E+03   -0.24925E-03   -0.80585E-05  3284   0.950E-02    0.212E-02
DAV:  15    -0.178658873837E+03   -0.23535E-03   -0.49003E-05  3380   0.621E-02    0.960E-03
DAV:  16    -0.178659095744E+03   -0.22191E-03   -0.26955E-05  3508   0.370E-02    0.118E-02
DAV:  17    -0.178659212275E+03   -0.11653E-03   -0.10643E-05  3220   0.303E-02    0.742E-03
DAV:  18    -0.178659304819E+03   -0.92544E-04   -0.42743E-06  2300   0.187E-02    0.357E-03
DAV:  19    -0.178659384076E+03   -0.79257E-04   -0.38760E-06  2332   0.128E-02    0.205E-03
DAV:  20    -0.178659414676E+03   -0.30600E-04   -0.10521E-06  1948   0.841E-03    0.318E-03
DAV:  21    -0.178659439362E+03   -0.24686E-04   -0.92783E-07  1860   0.925E-03    0.273E-03
DAV:  22    -0.178659454782E+03   -0.15420E-04   -0.53335E-07  1796   0.447E-03    0.263E-03
DAV:  23    -0.178659465741E+03   -0.10960E-04   -0.55095E-07  1652   0.534E-03    0.140E-03
DAV:  24    -0.178659470534E+03   -0.47925E-05   -0.20678E-07  1628   0.339E-03    0.993E-04
DAV:  25    -0.178659476172E+03   -0.56383E-05   -0.21832E-07  1684   0.293E-03    0.100E-03
DAV:  26    -0.178659478612E+03   -0.24401E-05   -0.11816E-07  1548   0.178E-03    0.470E-04
DAV:  27    -0.178659480080E+03   -0.14677E-05   -0.51787E-08  1548   0.147E-03    0.724E-04
DAV:  28    -0.178659482431E+03   -0.23513E-05   -0.51880E-08  1652   0.107E-03    0.229E-04
DAV:  29    -0.178659483063E+03   -0.63138E-06   -0.25275E-08  1580   0.864E-04
  11 F= -.17865948E+03 E0= -.17857558E+03  d E =-.449835E+01
       N       E                     dE             d eps       ncg     rms          rms(c)
DAV:   1    -0.178846349805E+03   -0.18687E+00   -0.14284E+01  2730   0.530E+00    0.152E+00
DAV:   2    -0.178903444884E+03   -0.57095E-01   -0.71762E-01  4192   0.254E+00    0.335E+00
DAV:   3    -0.178952332422E+03   -0.48888E-01   -0.14378E+00  4543   0.179E+00    0.545E+00
DAV:   4    -0.178846969399E+03    0.10536E+00   -0.66724E-01  3474   0.375E+00    0.926E-01
DAV:   5    -0.178901784157E+03   -0.54815E-01   -0.33221E-01  3442   0.247E+00    0.532E+00
DAV:   6    -0.178846329083E+03    0.55455E-01   -0.36860E-01  3760   0.330E-01    0.106E+00
DAV:   7    -0.178853761500E+03   -0.74324E-02   -0.20179E-02  3352   0.237E+00    0.399E-01
DAV:   8    -0.178852133625E+03    0.16279E-02   -0.46811E-03  3448   0.195E+00    0.124E-01
DAV:   9    -0.178852214367E+03   -0.80742E-04   -0.91536E-04  4496   0.547E-01    0.896E-02
DAV:  10    -0.178852332107E+03   -0.11774E-03   -0.39098E-04  4252   0.220E-01    0.453E-02
DAV:  11    -0.178852403400E+03   -0.71293E-04   -0.11444E-04  3276   0.118E-01    0.292E-02
DAV:  12    -0.178852510749E+03   -0.10735E-03   -0.40830E-05  3228   0.522E-02    0.127E-02
DAV:  13    -0.178852590404E+03   -0.79654E-04   -0.18470E-05  3420   0.435E-02    0.852E-03
DAV:  14    -0.178852653020E+03   -0.62616E-04   -0.88115E-06  3056   0.318E-02    0.129E-02
DAV:  15    -0.178852717076E+03   -0.64056E-04   -0.68314E-06  2426   0.165E-02    0.574E-03
DAV:  16    -0.178852770546E+03   -0.53470E-04   -0.72021E-06  2410   0.132E-02    0.243E-03
DAV:  17    -0.178852789626E+03   -0.19080E-04   -0.21313E-06  2370   0.124E-02    0.187E-03
DAV:  18    -0.178852801442E+03   -0.11816E-04   -0.87864E-07  1906   0.621E-03    0.208E-03
DAV:  19    -0.178852812637E+03   -0.11195E-04   -0.83860E-07  1978   0.548E-03    0.179E-03
DAV:  20    -0.178852816448E+03   -0.38113E-05   -0.35096E-07  1740   0.465E-03    0.773E-04
DAV:  21    -0.178852819224E+03   -0.27755E-05   -0.24026E-07  1600   0.366E-03    0.909E-04
DAV:  22    -0.178852820426E+03   -0.12026E-05   -0.16042E-07  1580   0.242E-03    0.792E-04
DAV:  23    -0.178852821847E+03   -0.14202E-05   -0.12489E-07  1568   0.169E-03    0.437E-04
DAV:  24    -0.178852822503E+03   -0.65664E-06   -0.63370E-08  1546   0.147E-03
  12 F= -.17885282E+03 E0= -.17876882E+03  d E =-.469169E+01
       N       E                     dE             d eps       ncg     rms          rms(c)
DAV:   1    -0.178862939854E+03   -0.10118E-01   -0.42169E-01  2731   0.927E-01    0.264E-01
DAV:   2    -0.178864936408E+03   -0.19966E-02   -0.21179E-02  4128   0.455E-01    0.631E-01
DAV:   3    -0.178865994342E+03   -0.10579E-02   -0.28820E-02  4452   0.300E-01    0.801E-01
DAV:   4    -0.178863045025E+03    0.29493E-02   -0.11892E-02  3400   0.696E-01    0.132E-01
DAV:   5    -0.178864005636E+03   -0.96061E-03   -0.55323E-03  3424   0.530E-01    0.672E-01
DAV:   6    -0.178863227519E+03    0.77812E-03   -0.78289E-03  3452   0.488E-02    0.240E-01
DAV:   7    -0.178863291051E+03   -0.63532E-04   -0.90728E-04  3386   0.473E-01    0.578E-02
DAV:   8    -0.178863254460E+03    0.36591E-04   -0.98739E-05  3704   0.307E-01    0.171E-02
DAV:   9    -0.178863258654E+03   -0.41940E-05   -0.33137E-05  4184   0.728E-02    0.260E-02
DAV:  10    -0.178863259774E+03   -0.11203E-05   -0.77357E-06  3228   0.409E-02    0.150E-02
DAV:  11    -0.178863263058E+03   -0.32843E-05   -0.50478E-06  2282   0.222E-02    0.328E-03
DAV:  12    -0.178863265997E+03   -0.29383E-05   -0.12948E-06  1794   0.107E-02    0.180E-03
DAV:  13    -0.178863270246E+03   -0.42490E-05   -0.89808E-07  1810   0.965E-03    0.141E-03
DAV:  14    -0.178863273905E+03   -0.36593E-05   -0.56075E-07  1818   0.444E-03    0.145E-03
DAV:  15    -0.178863277293E+03   -0.33884E-05   -0.38079E-07  1682   0.501E-03    0.155E-03
DAV:  16    -0.178863278735E+03   -0.14412E-05   -0.19407E-07  1604   0.311E-03    0.125E-03
DAV:  17    -0.178863280629E+03   -0.18941E-05   -0.21771E-07  1650   0.289E-03    0.619E-04
DAV:  18    -0.178863281818E+03   -0.11890E-05   -0.14104E-07  1596   0.157E-03    0.456E-04
DAV:  19    -0.178863282422E+03   -0.60454E-06   -0.87627E-08  1596   0.171E-03
  13 F= -.17886328E+03 E0= -.17877929E+03  d E =-.470215E+01
       N       E                     dE             d eps       ncg     rms          rms(c)
DAV:   1    -0.177495835512E+03    0.13674E+01   -0.13605E+03  3447   0.883E+01    0.106E+01
DAV:   2    -0.181409376083E+03   -0.39135E+01   -0.42311E+01  4011   0.406E+01    0.117E+01
DAV:   3    -0.191760239435E+03   -0.10351E+02   -0.74203E+01  3860   0.433E+01    0.372E+01
DAV:   4    -0.180487862965E+03    0.11272E+02   -0.23624E+01  3940   0.168E+01    0.579E+00
DAV:   5    -0.180479519220E+03    0.83437E-02   -0.94461E-01  3732   0.170E+01    0.428E+00
DAV:   6    -0.180501243832E+03   -0.21725E-01   -0.46157E-01  3394   0.102E+01    0.340E+00
DAV:   7    -0.180482951371E+03    0.18292E-01   -0.19834E-01  3410   0.913E+00    0.279E+00
DAV:   8    -0.180823484614E+03   -0.34053E+00   -0.22838E+00  4004   0.284E+00    0.120E+01
DAV:   9    -0.180448204321E+03    0.37528E+00   -0.11049E+00  4840   0.327E+00    0.180E+00
DAV:  10    -0.180458432504E+03   -0.10228E-01   -0.68056E-02  3698   0.451E+00    0.117E+00
DAV:  11    -0.180454775049E+03    0.36575E-02   -0.57410E-02  3908   0.189E+00    0.470E-01
DAV:  12    -0.180455744704E+03   -0.96966E-03   -0.11910E-02  3188   0.899E-01    0.199E-01
DAV:  13    -0.180455743218E+03    0.14858E-05   -0.42702E-03  3146   0.618E-01    0.972E-02
DAV:  14    -0.180455699081E+03    0.44137E-04   -0.55701E-04  3452   0.362E-01    0.962E-02
DAV:  15    -0.180455680067E+03    0.19015E-04   -0.43818E-04  3228   0.230E-01    0.669E-02
DAV:  16    -0.180455695340E+03   -0.15274E-04   -0.18728E-04  3140   0.152E-01    0.223E-02
DAV:  17    -0.180455698392E+03   -0.30518E-05   -0.48485E-05  3164   0.772E-02    0.162E-02
DAV:  18    -0.180455702514E+03   -0.41221E-05   -0.19551E-05  3244   0.435E-02    0.642E-03
DAV:  19    -0.180455705313E+03   -0.27985E-05   -0.53969E-06  2772   0.192E-02    0.428E-03
DAV:  20    -0.180455707920E+03   -0.26073E-05   -0.97866E-07  1684   0.105E-02    0.312E-03
DAV:  21    -0.180455711232E+03   -0.33118E-05   -0.83459E-07  1716   0.983E-03    0.206E-03
DAV:  22    -0.180455712859E+03   -0.16277E-05   -0.47737E-07  1700   0.578E-03    0.141E-03
DAV:  23    -0.180455714970E+03   -0.21110E-05   -0.40052E-07  1668   0.424E-03    0.113E-03
DAV:  24    -0.180455715963E+03   -0.99227E-06   -0.18770E-07  1684   0.311E-03
  14 F= -.18045572E+03 E0= -.18038022E+03  d E =-.159243E+01
       N       E                     dE             d eps       ncg     rms          rms(c)
DAV:   1    -0.180474982289E+03   -0.19267E-01   -0.94149E+01  2772   0.200E+01    0.139E+00
DAV:   2    -0.180819019464E+03   -0.34404E+00   -0.33535E+00  4196   0.757E+00    0.579E+00
DAV:   3    -0.180755578461E+03    0.63441E-01   -0.20259E+00  3804   0.258E+00    0.390E+00
DAV:   4    -0.180694165711E+03    0.61413E-01   -0.32721E-01  3284   0.492E+00    0.788E-01
DAV:   5    -0.180697633396E+03   -0.34677E-02   -0.43889E-02  4554   0.252E+00    0.159E+00
DAV:   6    -0.180709415590E+03   -0.11782E-01   -0.20543E-01  3516   0.529E-01    0.304E+00
DAV:   7    -0.180692370001E+03    0.17046E-01   -0.10330E-01  3994   0.340E+00    0.713E-01
DAV:   8    -0.180689774115E+03    0.25959E-02   -0.13473E-02  4296   0.268E+00    0.280E-01
DAV:   9    -0.180689840465E+03   -0.66351E-04   -0.36693E-03  4588   0.721E-01    0.112E-01
DAV:  10    -0.180689802208E+03    0.38258E-04   -0.79539E-04  3628   0.366E-01    0.569E-02
DAV:  11    -0.180689847288E+03   -0.45080E-04   -0.38805E-04  3156   0.152E-01    0.441E-02
DAV:  12    -0.180689841504E+03    0.57835E-05   -0.83515E-05  3636   0.104E-01    0.242E-02
DAV:  13    -0.180689844451E+03   -0.29468E-05   -0.35456E-05  3268   0.671E-02    0.197E-02
DAV:  14    -0.180689845628E+03   -0.11771E-05   -0.12213E-05  3228   0.336E-02    0.556E-03
DAV:  15    -0.180689846839E+03   -0.12110E-05   -0.24375E-06  1980   0.176E-02    0.479E-03
DAV:  16    -0.180689847463E+03   -0.62370E-06   -0.10672E-06  1668   0.122E-02
  15 F= -.18068985E+03 E0= -.18061113E+03  d E =-.182657E+01
       N       E                     dE             d eps       ncg     rms          rms(c)
DAV:   1    -0.177277285670E+03    0.34126E+01   -0.29394E+02  2731   0.322E+01    0.615E+00
DAV:   2    -0.179371884154E+03   -0.20946E+01   -0.19982E+01  3876   0.108E+01    0.138E+01
DAV:   3    -0.179471162241E+03   -0.99278E-01   -0.18157E+01  4132   0.832E+00    0.185E+01
DAV:   4    -0.178215602644E+03    0.12556E+01   -0.15966E+01  3796   0.180E+01    0.620E+00
DAV:   5    -0.178481108423E+03   -0.26551E+00   -0.14649E+00  3820   0.106E+01    0.104E+01
DAV:   6    -0.178192856578E+03    0.28825E+00   -0.32022E+00  4171   0.229E+00    0.593E+00
DAV:   7    -0.178155453741E+03    0.37403E-01   -0.44085E-01  3476   0.111E+01    0.408E+00
DAV:   8    -0.178046182817E+03    0.10927E+00   -0.52403E-01  3620   0.935E+00    0.624E-01
DAV:   9    -0.178054236296E+03   -0.80535E-02   -0.36169E-02  4580   0.295E+00    0.109E+00
DAV:  10    -0.178053640433E+03    0.59586E-03   -0.14581E-02  3940   0.106E+00    0.789E-01
DAV:  11    -0.178051406765E+03    0.22337E-02   -0.54994E-03  3300   0.802E-01    0.294E-01
DAV:  12    -0.178051448579E+03   -0.41813E-04   -0.24058E-03  3540   0.517E-01    0.571E-02
DAV:  13    -0.178051602510E+03   -0.15393E-03   -0.51183E-04  3412   0.283E-01    0.365E-02
DAV:  14    -0.178051684897E+03   -0.82387E-04   -0.12947E-04  3588   0.115E-01    0.204E-02
DAV:  15    -0.178051791268E+03   -0.10637E-03   -0.53291E-05  3492   0.774E-02    0.166E-02
DAV:  16    -0.178051849224E+03   -0.57956E-04   -0.24052E-05  3820   0.517E-02    0.105E-02
DAV:  17    -0.178051909798E+03   -0.60574E-04   -0.79937E-06  2948   0.208E-02    0.882E-03
DAV:  18    -0.178051973999E+03   -0.64200E-04   -0.67161E-06  2908   0.250E-02    0.482E-03
DAV:  19    -0.178052002885E+03   -0.28887E-04   -0.20698E-06  2212   0.169E-02    0.277E-03
DAV:  20    -0.178052043030E+03   -0.40144E-04   -0.24612E-06  2212   0.112E-02    0.244E-03
DAV:  21    -0.178052065095E+03   -0.22065E-04   -0.14569E-06  2132   0.570E-03    0.159E-03
DAV:  22    -0.178052075255E+03   -0.10160E-04   -0.59303E-07  1836   0.648E-03    0.157E-03
DAV:  23    -0.178052083206E+03   -0.79513E-05   -0.44851E-07  1804   0.528E-03    0.560E-04
DAV:  24    -0.178052087702E+03   -0.44960E-05   -0.28791E-07  1708   0.301E-03    0.851E-04
DAV:  25    -0.178052091786E+03   -0.40835E-05   -0.24654E-07  1660   0.309E-03    0.443E-04
DAV:  26    -0.178052093277E+03   -0.14917E-05   -0.13930E-07  1612   0.198E-03    0.313E-04
DAV:  27    -0.178052095014E+03   -0.17369E-05   -0.10022E-07  1660   0.181E-03    0.324E-04
DAV:  28    -0.178052095988E+03   -0.97387E-06   -0.62129E-08  1588   0.121E-03
  16 F= -.17805210E+03 E0= -.17797558E+03  d E =0.263775E+01
       N       E                     dE             d eps       ncg     rms          rms(c)
DAV:   1    -0.180549780913E+03   -0.24977E+01   -0.18570E+02  2730   0.259E+01    0.521E+00
DAV:   2    -0.184596919698E+03   -0.40471E+01   -0.31309E+01  4714   0.184E+01    0.293E+01
DAV:   3    -0.181178044216E+03    0.34189E+01   -0.29154E+01  4508   0.690E+00    0.763E+00
DAV:   4    -0.180981980287E+03    0.19606E+00   -0.45396E+00  3476   0.258E+01    0.437E+00
DAV:   5    -0.181104421797E+03   -0.12244E+00   -0.25727E+00  4066   0.130E+01    0.111E+01
DAV:   6    -0.180884166560E+03    0.22026E+00   -0.19622E+00  4284   0.207E+00    0.521E+00
DAV:   7    -0.180849997242E+03    0.34169E-01   -0.46798E-01  3459   0.776E+00    0.154E+00
DAV:   8    -0.180848295585E+03    0.17017E-02   -0.81252E-02  3682   0.580E+00    0.134E+00
DAV:   9    -0.180839721945E+03    0.85736E-02   -0.32488E-02  4090   0.241E+00    0.452E-01
DAV:  10    -0.180840168840E+03   -0.44689E-03   -0.88481E-03  3580   0.102E+00    0.186E-01
DAV:  11    -0.180840634764E+03   -0.46592E-03   -0.38446E-03  3476   0.717E-01    0.889E-02
DAV:  12    -0.180840806798E+03   -0.17203E-03   -0.64863E-04  3244   0.329E-01    0.505E-02
DAV:  13    -0.180840931138E+03   -0.12434E-03   -0.27306E-04  3404   0.129E-01    0.434E-02
DAV:  14    -0.180841008421E+03   -0.77283E-04   -0.71707E-05  3412   0.909E-02    0.240E-02
DAV:  15    -0.180841070762E+03   -0.62341E-04   -0.30745E-05  3484   0.668E-02    0.946E-03
DAV:  16    -0.180841125732E+03   -0.54970E-04   -0.12377E-05  3236   0.311E-02    0.908E-03
DAV:  17    -0.180841186423E+03   -0.60691E-04   -0.72858E-06  2804   0.203E-02    0.101E-02
DAV:  18    -0.180841239561E+03   -0.53138E-04   -0.66163E-06  2492   0.179E-02    0.298E-03
DAV:  19    -0.180841267631E+03   -0.28070E-04   -0.27314E-06  2348   0.148E-02    0.268E-03
DAV:  20    -0.180841288806E+03   -0.21174E-04   -0.18573E-06  2244   0.699E-03    0.294E-03
DAV:  21    -0.180841308489E+03   -0.19684E-04   -0.20268E-06  2100   0.613E-03    0.275E-03
DAV:  22    -0.180841315140E+03   -0.66510E-05   -0.74882E-07  1924   0.653E-03    0.170E-03
DAV:  23    -0.180841318435E+03   -0.32952E-05   -0.36902E-07  1692   0.377E-03    0.564E-04
DAV:  24    -0.180841320764E+03   -0.23289E-05   -0.26824E-07  1652   0.278E-03    0.542E-04
DAV:  25    -0.180841322079E+03   -0.13143E-05   -0.18322E-07  1612   0.226E-03    0.395E-04
DAV:  26    -0.180841323096E+03   -0.10174E-05   -0.12401E-07  1620   0.173E-03    0.338E-04
DAV:  27    -0.180841323602E+03   -0.50635E-06   -0.73268E-08  1588   0.151E-03
  17 F= -.18084132E+03 E0= -.18076302E+03  d E =-.151476E+00
       N       E                     dE             d eps       ncg     rms          rms(c)
DAV:   1    -0.180534781076E+03    0.30654E+00   -0.81109E+01  2739   0.169E+01    0.300E+00
DAV:   2    -0.181833676597E+03   -0.12989E+01   -0.10038E+01  4379   0.865E+00    0.129E+01
DAV:   3    -0.180874344898E+03    0.95933E+00   -0.90766E+00  4340   0.576E+00    0.632E+00
DAV:   4    -0.180756255640E+03    0.11809E+00   -0.26209E+00  3620   0.120E+01    0.335E+00
DAV:   5    -0.180711420995E+03    0.44835E-01   -0.13918E-01  4171   0.454E+00    0.191E+00
DAV:   6    -0.180709033424E+03    0.23876E-02   -0.11634E-01  4402   0.352E+00    0.193E+00
DAV:   7    -0.180746592588E+03   -0.37559E-01   -0.42197E-01  3972   0.137E+00    0.470E+00
DAV:   8    -0.180695618772E+03    0.50974E-01   -0.18813E-01  4354   0.320E+00    0.680E-01
DAV:   9    -0.180699489547E+03   -0.38708E-02   -0.91882E-03  4112   0.163E+00    0.447E-01
DAV:  10    -0.180699306356E+03    0.18319E-03   -0.34767E-03  4036   0.498E-01    0.122E-01
DAV:  11    -0.180699370540E+03   -0.64184E-04   -0.10895E-03  3420   0.285E-01    0.938E-02
DAV:  12    -0.180699401877E+03   -0.31336E-04   -0.39143E-04  3500   0.177E-01    0.762E-02
DAV:  13    -0.180699388659E+03    0.13218E-04   -0.90964E-05  3204   0.137E-01    0.415E-02
DAV:  14    -0.180699393687E+03   -0.50280E-05   -0.35131E-05  4164   0.458E-02    0.146E-02
DAV:  15    -0.180699398756E+03   -0.50697E-05   -0.11088E-05  3108   0.357E-02    0.610E-03
DAV:  16    -0.180699400157E+03   -0.14006E-05   -0.22306E-06  1788   0.168E-02    0.377E-03
DAV:  17    -0.180699401957E+03   -0.18002E-05   -0.11460E-06  1802   0.153E-02    0.273E-03
DAV:  18    -0.180699402327E+03   -0.36997E-06   -0.66495E-07  1612   0.564E-03
  18 F= -.18069940E+03 E0= -.18062170E+03  d E =0.141921E+00
       N       E                     dE             d eps       ncg     rms          rms(c)
DAV:   1    -0.180909311124E+03   -0.20991E+00   -0.28517E+01  2731   0.101E+01    0.202E+00
DAV:   2    -0.182178023205E+03   -0.12687E+01   -0.10312E+01  4746   0.781E+00    0.186E+01
DAV:   3    -0.180899322548E+03    0.12787E+01   -0.10208E+01  4540   0.376E+00    0.209E+00
DAV:   4    -0.180948095138E+03   -0.48773E-01   -0.32391E-01  3394   0.102E+01    0.158E+00
DAV:   5    -0.180947623888E+03    0.47125E-03   -0.13190E-01  4040   0.436E+00    0.253E+00
DAV:   6    -0.180946708385E+03    0.91550E-03   -0.24621E-01  3724   0.612E-01    0.238E+00
DAV:   7    -0.180935947844E+03    0.10761E-01   -0.63686E-02  3490   0.264E+00    0.477E-01
DAV:   8    -0.180936609054E+03   -0.66121E-03   -0.15012E-02  4856   0.201E+00    0.465E-01
DAV:   9    -0.180935341274E+03    0.12678E-02   -0.45562E-03  4682   0.828E-01    0.157E-01
DAV:  10    -0.180935299652E+03    0.41623E-04   -0.70396E-04  4108   0.212E-01    0.835E-02
DAV:  11    -0.180935373995E+03   -0.74343E-04   -0.54550E-04  3332   0.292E-01    0.701E-02
DAV:  12    -0.180935386300E+03   -0.12304E-04   -0.15124E-04  3300   0.177E-01    0.211E-02
DAV:  13    -0.180935392230E+03   -0.59298E-05   -0.33353E-05  4028   0.703E-02    0.166E-02
DAV:  14    -0.180935392538E+03   -0.30803E-06   -0.11693E-05  3188   0.432E-02    0.126E-02
DAV:  15    -0.180935392374E+03    0.16345E-06   -0.32156E-06  1820   0.133E-02
  19 F= -.18093539E+03 E0= -.18085742E+03  d E =-.940688E-01
       N       E                     dE             d eps       ncg     rms          rms(c)
DAV:   1    -0.180945536502E+03   -0.10144E-01   -0.70176E+01  2730   0.152E+01    0.222E+00
DAV:   2    -0.181902430546E+03   -0.95689E+00   -0.72836E+00  4506   0.747E+00    0.107E+01
DAV:   3    -0.181132665362E+03    0.76977E+00   -0.47778E+00  4338   0.654E+00    0.312E+00
DAV:   4    -0.181112106844E+03    0.20559E-01   -0.24193E-01  4122   0.249E+00    0.136E+00
DAV:   5    -0.181115984074E+03   -0.38772E-02   -0.50827E-02  3440   0.293E+00    0.195E+00
DAV:   6    -0.181124402839E+03   -0.84188E-02   -0.12662E-01  3428   0.549E-01    0.275E+00
DAV:   7    -0.181109116291E+03    0.15287E-01   -0.65495E-02  3482   0.388E+00    0.733E-01
DAV:   8    -0.181105810590E+03    0.33057E-02   -0.12172E-02  3696   0.302E+00    0.335E-01
DAV:   9    -0.181105796979E+03    0.13611E-04   -0.32947E-03  4968   0.917E-01    0.246E-01
DAV:  10    -0.181105475706E+03    0.32127E-03   -0.19149E-03  3484   0.562E-01    0.130E-01
DAV:  11    -0.181105466771E+03    0.89345E-05   -0.41998E-04  3316   0.164E-01    0.842E-02
DAV:  12    -0.181105469678E+03   -0.29071E-05   -0.18006E-04  3444   0.147E-01    0.242E-02
DAV:  13    -0.181105477473E+03   -0.77951E-05   -0.41654E-05  3484   0.847E-02    0.104E-02
DAV:  14    -0.181105485513E+03   -0.80395E-05   -0.10448E-05  3652   0.349E-02    0.102E-02
DAV:  15    -0.181105490821E+03   -0.53087E-05   -0.32912E-06  2156   0.171E-02    0.582E-03
DAV:  16    -0.181105495722E+03   -0.49006E-05   -0.13617E-06  1740   0.146E-02    0.332E-03
DAV:  17    -0.181105501046E+03   -0.53240E-05   -0.89210E-07  1908   0.847E-03    0.103E-03
DAV:  18    -0.181105504544E+03   -0.34982E-05   -0.49570E-07  1700   0.407E-03    0.130E-03
DAV:  19    -0.181105506970E+03   -0.24260E-05   -0.33277E-07  1628   0.371E-03    0.704E-04
DAV:  20    -0.181105510404E+03   -0.34337E-05   -0.40426E-07  1760   0.311E-03    0.110E-03
DAV:  21    -0.181105512564E+03   -0.21602E-05   -0.23725E-07  1658   0.270E-03    0.674E-04
DAV:  22    -0.181105513693E+03   -0.11284E-05   -0.16770E-07  1604   0.206E-03    0.550E-04
DAV:  23    -0.181105514452E+03   -0.75926E-06   -0.12284E-07  1576   0.176E-03
  20 F= -.18110551E+03 E0= -.18103028E+03  d E =-.170122E+00
       N       E                     dE             d eps       ncg     rms          rms(c)
DAV:   1    -0.181105508991E+03    0.47016E-05   -0.11617E-01  2732   0.617E-01    0.832E-02
DAV:   2    -0.181107177408E+03   -0.16684E-02   -0.81886E-03  4298   0.256E-01    0.556E-01
DAV:   3    -0.181105617072E+03    0.15603E-02   -0.54162E-03  4064   0.221E-01    0.538E-02
DAV:   4    -0.181105738579E+03   -0.12151E-03   -0.12556E-04  3568   0.731E-02    0.463E-02
DAV:   5    -0.181105869359E+03   -0.13078E-03   -0.57631E-04  3524   0.701E-02    0.237E-01
DAV:   6    -0.181105729355E+03    0.14000E-03   -0.52343E-04  3455   0.525E-02    0.357E-02
DAV:   7    -0.181105745437E+03   -0.16082E-04   -0.50040E-05  3408   0.136E-01    0.175E-02
DAV:   8    -0.181105747837E+03   -0.24006E-05   -0.12925E-05  3576   0.995E-02    0.736E-03
DAV:   9    -0.181105748051E+03   -0.21362E-06   -0.25803E-06  1948   0.465E-02
  21 F= -.18110575E+03 E0= -.18103063E+03  d E =-.170356E+00
       N       E                     dE             d eps       ncg     rms          rms(c)
DAV:   1    -0.181168844349E+03   -0.63097E-01   -0.37216E+00  2732   0.345E+00    0.492E-01
DAV:   2    -0.181234613226E+03   -0.65769E-01   -0.41566E-01  4506   0.153E+00    0.365E+00
DAV:   3    -0.181172648598E+03    0.61965E-01   -0.36451E-01  4128   0.133E+00    0.298E-01
DAV:   4    -0.181175999153E+03   -0.33506E-02   -0.42073E-03  3570   0.470E-01    0.227E-01
DAV:   5    -0.181176297229E+03   -0.29808E-03   -0.18254E-03  3344   0.519E-01    0.284E-01
DAV:   6    -0.181178021228E+03   -0.17240E-02   -0.81069E-03  3608   0.159E-01    0.922E-01
DAV:   7    -0.181176043452E+03    0.19778E-02   -0.58803E-03  3618   0.530E-01    0.743E-02
DAV:   8    -0.181176116242E+03   -0.72791E-04   -0.46557E-04  3528   0.521E-01    0.452E-02
DAV:   9    -0.181176112161E+03    0.40812E-05   -0.10072E-04  4664   0.236E-01    0.288E-02
DAV:  10    -0.181176113582E+03   -0.14208E-05   -0.44469E-05  4452   0.933E-02    0.267E-02
DAV:  11    -0.181176114063E+03   -0.48144E-06   -0.12351E-05  3252   0.396E-02    0.188E-02
DAV:  12    -0.181176113666E+03    0.39756E-06   -0.64756E-06  2652   0.267E-02
  22 F= -.18117611E+03 E0= -.18110177E+03  d E =-.703656E-01
       N       E                     dE             d eps       ncg     rms          rms(c)
DAV:   1    -0.181298080889E+03   -0.12197E+00   -0.33372E+01  2730   0.103E+01    0.151E+00
DAV:   2    -0.181854427619E+03   -0.55635E+00   -0.45275E+00  4490   0.491E+00    0.936E+00
DAV:   3    -0.181358617242E+03    0.49581E+00   -0.37600E+00  4330   0.438E+00    0.138E+00
DAV:   4    -0.181368164440E+03   -0.95472E-02   -0.72501E-02  3930   0.172E+00    0.829E-01
DAV:   5    -0.181374835394E+03   -0.66710E-02   -0.26293E-02  3346   0.141E+00    0.164E+00
DAV:   6    -0.181370815486E+03    0.40199E-02   -0.34773E-02  3380   0.318E-01    0.115E+00
DAV:   7    -0.181368571413E+03    0.22441E-02   -0.18043E-02  3282   0.231E+00    0.329E-01
DAV:   8    -0.181367446927E+03    0.11245E-02   -0.39077E-03  3464   0.177E+00    0.113E-01
DAV:   9    -0.181367498160E+03   -0.51233E-04   -0.77873E-04  4992   0.587E-01    0.123E-01
DAV:  10    -0.181367423543E+03    0.74617E-04   -0.47288E-04  3912   0.388E-01    0.425E-02
DAV:  11    -0.181367435466E+03   -0.11924E-04   -0.13161E-04  3364   0.114E-01    0.229E-02
DAV:  12    -0.181367438342E+03   -0.28757E-05   -0.43022E-05  3396   0.753E-02    0.929E-03
DAV:  13    -0.181367439672E+03   -0.13293E-05   -0.11116E-05  3356   0.411E-02    0.578E-03
DAV:  14    -0.181367440548E+03   -0.87643E-06   -0.30538E-06  2276   0.223E-02
  23 F= -.18136744E+03 E0= -.18129584E+03  d E =-.261692E+00
       N       E                     dE             d eps       ncg     rms          rms(c)
DAV:   1    -0.181358584990E+03    0.88547E-02   -0.13242E+02  2730   0.207E+01    0.289E+00
DAV:   2    -0.182865563278E+03   -0.15070E+01   -0.12865E+01  4465   0.103E+01    0.142E+01
DAV:   3    -0.181798200478E+03    0.10674E+01   -0.12442E+01  4426   0.934E+00    0.542E+00
DAV:   4    -0.181711058662E+03    0.87142E-01   -0.13032E+00  3932   0.296E+00    0.286E+00
DAV:   5    -0.181693224837E+03    0.17834E-01   -0.47055E-02  3692   0.144E+00    0.230E+00
DAV:   6    -0.181706205963E+03   -0.12981E-01   -0.41191E-02  3420   0.104E+00    0.298E+00
DAV:   7    -0.181692130829E+03    0.14075E-01   -0.54617E-02  3410   0.371E+00    0.131E+00
DAV:   8    -0.181685650467E+03    0.64804E-02   -0.35299E-02  3634   0.523E+00    0.526E-01
DAV:   9    -0.181686149630E+03   -0.49916E-03   -0.23203E-02  4936   0.164E+00    0.696E-01
DAV:  10    -0.181685214428E+03    0.93520E-03   -0.37838E-03  3732   0.654E-01    0.614E-01
DAV:  11    -0.181684098569E+03    0.11159E-02   -0.26777E-03  3604   0.508E-01    0.262E-01
DAV:  12    -0.181684077602E+03    0.20967E-04   -0.15571E-03  3644   0.304E-01    0.467E-02
DAV:  13    -0.181684041382E+03    0.36220E-04   -0.16865E-04  3412   0.157E-01    0.400E-02
DAV:  14    -0.181684045238E+03   -0.38553E-05   -0.84648E-05  3364   0.892E-02    0.175E-02
DAV:  15    -0.181684049980E+03   -0.47422E-05   -0.33133E-05  3548   0.576E-02    0.116E-02
DAV:  16    -0.181684051951E+03   -0.19708E-05   -0.85338E-06  3004   0.285E-02    0.461E-03
DAV:  17    -0.181684053405E+03   -0.14546E-05   -0.18962E-06  1780   0.159E-02    0.375E-03
DAV:  18    -0.181684055250E+03   -0.18444E-05   -0.12463E-06  1812   0.136E-02    0.225E-03
DAV:  19    -0.181684056744E+03   -0.14941E-05   -0.64142E-07  1684   0.773E-03    0.864E-04
DAV:  20    -0.181684057771E+03   -0.10268E-05   -0.34249E-07  1588   0.473E-03    0.819E-04
DAV:  21    -0.181684058600E+03   -0.82899E-06   -0.22408E-07  1636   0.365E-03
  24 F= -.18168406E+03 E0= -.18162054E+03  d E =-.578311E+00
       N       E                     dE             d eps       ncg     rms          rms(c)
DAV:   1    -0.180195578003E+03    0.14885E+01   -0.51978E+02  2770   0.430E+01    0.695E+00
DAV:   2    -0.185538783260E+03   -0.53432E+01   -0.45596E+01  4379   0.232E+01    0.194E+01
DAV:   3    -0.182946880691E+03    0.25919E+01   -0.12580E+01  4660   0.238E+01    0.114E+01
DAV:   4    -0.182480714719E+03    0.46617E+00   -0.10560E+01  4090   0.746E+00    0.849E+00
DAV:   5    -0.182268262441E+03    0.21245E+00   -0.28219E-01  4378   0.533E+00    0.669E+00
DAV:   6    -0.182157654743E+03    0.11061E+00   -0.51200E-01  3297   0.946E+00    0.377E+00
DAV:   7    -0.182242992212E+03   -0.85337E-01   -0.13340E+00  3891   0.585E+00    0.540E+00
DAV:   8    -0.182161372470E+03    0.81620E-01   -0.24741E-01  3882   0.282E+00    0.305E+00
DAV:   9    -0.182164662474E+03   -0.32900E-02   -0.67310E-02  3676   0.814E-01    0.283E+00
DAV:  10    -0.182148636440E+03    0.16026E-01   -0.17959E-02  4155   0.180E+00    0.194E+00
DAV:  11    -0.182144863514E+03    0.37729E-02   -0.14585E-02  4234   0.603E-01    0.119E+00
DAV:  12    -0.182145909327E+03   -0.10458E-02   -0.88438E-03  3754   0.724E-01    0.559E-01
DAV:  13    -0.182147694696E+03   -0.17854E-02   -0.33766E-03  3955   0.390E-01    0.212E-01
DAV:  14    -0.182148237172E+03   -0.54248E-03   -0.78033E-04  3979   0.201E-01    0.104E-01
DAV:  15    -0.182148484218E+03   -0.24705E-03   -0.32167E-04  3572   0.190E-01    0.726E-02
DAV:  16    -0.182148534848E+03   -0.50630E-04   -0.12321E-04  3498   0.848E-02    0.405E-02
DAV:  17    -0.182148541298E+03   -0.64502E-05   -0.23632E-05  3932   0.295E-02    0.318E-02
DAV:  18    -0.182148546246E+03   -0.49480E-05   -0.85256E-06  3244   0.310E-02    0.167E-02
DAV:  19    -0.182148552657E+03   -0.64106E-05   -0.52273E-06  2772   0.271E-02    0.973E-03
DAV:  20    -0.182148556559E+03   -0.39028E-05   -0.24931E-06  2444   0.998E-03    0.560E-03
DAV:  21    -0.182148559440E+03   -0.28806E-05   -0.18043E-06  1988   0.117E-02    0.240E-03
DAV:  22    -0.182148561021E+03   -0.15814E-05   -0.53612E-07  1644   0.708E-03    0.118E-03
DAV:  23    -0.182148563249E+03   -0.22273E-05   -0.43565E-07  1707   0.511E-03    0.173E-03
DAV:  24    -0.182148564472E+03   -0.12229E-05   -0.26503E-07  1652   0.327E-03    0.936E-04
DAV:  25    -0.182148564952E+03   -0.48062E-06   -0.15771E-07  1587   0.252E-03
  25 F= -.18214856E+03 E0= -.18209309E+03  d E =-.104282E+01
       N       E                     dE             d eps       ncg     rms          rms(c)
DAV:   1    -0.171852488551E+03    0.10296E+02   -0.20266E+03  2955   0.939E+01    0.220E+01
DAV:   2    -0.208845941980E+03   -0.36993E+02   -0.29665E+02  4844   0.771E+01    0.308E+01
DAV:   3    -0.186576133838E+03    0.22270E+02   -0.45824E+01  4868   0.903E+01    0.174E+01
DAV:   4    -0.183863851969E+03    0.27123E+01   -0.10741E+01  4755   0.562E+01    0.138E+01
DAV:   5    -0.182815547669E+03    0.10483E+01   -0.56459E+00  4435   0.239E+01    0.702E+00
DAV:   6    -0.184943403809E+03   -0.21279E+01   -0.33412E+01  3556   0.102E+01    0.125E+01
DAV:   7    -0.184456413715E+03    0.48699E+00   -0.88592E-01  3804   0.114E+01    0.110E+01
DAV:   8    -0.183169331793E+03    0.12871E+01   -0.89113E-01  3707   0.120E+01    0.786E+00
DAV:   9    -0.183467108609E+03   -0.29778E+00   -0.10798E+01  4548   0.389E+00    0.118E+01
DAV:  10    -0.182806319507E+03    0.66079E+00   -0.19010E+00  3868   0.301E+00    0.278E+00
DAV:  11    -0.182997896049E+03   -0.19158E+00   -0.21941E+00  3868   0.273E+00    0.590E+00
DAV:  12    -0.183018518058E+03   -0.20622E-01   -0.76048E-02  3548   0.157E+00    0.619E+00
DAV:  13    -0.182858081310E+03    0.16044E+00   -0.23423E-01  3668   0.113E+00    0.304E+00
DAV:  14    -0.182842264900E+03    0.15816E-01   -0.10458E-01  4204   0.830E-01    0.798E-01
DAV:  15    -0.182853304206E+03   -0.11039E-01   -0.70498E-03  3436   0.286E-01    0.571E-01
DAV:  16    -0.182854713792E+03   -0.14096E-02   -0.87771E-04  3476   0.279E-01    0.665E-01
DAV:  17    -0.182865869197E+03   -0.11155E-01   -0.26459E-02  4828   0.625E-01    0.192E+00
DAV:  18    -0.182849989025E+03    0.15880E-01   -0.56321E-02  4004   0.457E-01    0.260E-01
DAV:  19    -0.182854496938E+03   -0.45079E-02   -0.53396E-03  3692   0.219E-01    0.749E-01
DAV:  20    -0.182852916466E+03    0.15805E-02   -0.21789E-03  3356   0.151E-01    0.424E-01
DAV:  21    -0.182852642420E+03    0.27405E-03   -0.21875E-03  4196   0.133E-01    0.884E-02
DAV:  22    -0.182852916215E+03   -0.27379E-03   -0.42230E-04  3524   0.647E-02    0.396E-02
DAV:  23    -0.182853000324E+03   -0.84109E-04   -0.12270E-04  3668   0.579E-02    0.351E-02
DAV:  24    -0.182853007917E+03   -0.75939E-05   -0.23044E-05  3676   0.342E-02    0.141E-02
DAV:  25    -0.182853022070E+03   -0.14152E-04   -0.72482E-06  3084   0.264E-02    0.684E-03
DAV:  26    -0.182853039218E+03   -0.17148E-04   -0.14840E-05  2020   0.120E-02    0.221E-02
DAV:  27    -0.182853042331E+03   -0.31131E-05   -0.90135E-06  2020   0.114E-02    0.421E-03
DAV:  28    -0.182853050230E+03   -0.78994E-05   -0.13395E-06  1940   0.809E-03    0.390E-03
DAV:  29    -0.182853057092E+03   -0.68619E-05   -0.29406E-06  1884   0.731E-03    0.114E-02
DAV:  30    -0.182853059529E+03   -0.24374E-05   -0.27656E-06  1828   0.454E-03    0.149E-03
DAV:  31    -0.182853061299E+03   -0.17700E-05   -0.69762E-07  1636   0.339E-03    0.383E-03
DAV:  32    -0.182853063703E+03   -0.24038E-05   -0.26228E-07  1770   0.278E-03    0.422E-03
DAV:  33    -0.182853065552E+03   -0.18483E-05   -0.22999E-07  1724   0.313E-03    0.489E-03
DAV:  34    -0.182853066459E+03   -0.90740E-06   -0.22166E-07  1738   0.197E-03
  26 F= -.18285307E+03 E0= -.18279843E+03  d E =-.174732E+01
       N       E                     dE             d eps       ncg     rms          rms(c)
DAV:   1     0.156583877442E+03    0.33944E+03   -0.83588E+03  3880   0.244E+02    0.365E+01
DAV:   2     0.199652975834E+02   -0.13662E+03   -0.99148E+02  4442   0.152E+02    0.674E+01
DAV:   3     0.452116729355E+02    0.25246E+02   -0.23973E+02  4411   0.173E+02    0.333E+01
DAV:   4     0.586120534032E+02    0.13400E+02   -0.55846E+01  4780   0.837E+01    0.228E+01
DAV:   5     0.628159801257E+02    0.42039E+01   -0.23142E+01  3780   0.708E+01    0.168E+01
DAV:   6     0.615073149389E+02   -0.13087E+01   -0.25784E+01  4004   0.526E+01    0.209E+01
DAV:   7     0.622085649529E+02    0.70125E+00   -0.24727E+01  3460   0.627E+01    0.232E+01
DAV:   8     0.639987533999E+02    0.17902E+01   -0.88557E+00  4236   0.217E+01    0.150E+01
DAV:   9     0.657783000390E+02    0.17795E+01   -0.33728E+00  3900   0.167E+01    0.960E+00
DAV:  10     0.667811881822E+02    0.10029E+01   -0.47692E+00  3676   0.153E+01    0.471E+00
DAV:  11     0.669917810772E+02    0.21059E+00   -0.13296E+00  4204   0.103E+01    0.288E+00
DAV:  12     0.670675877446E+02    0.75807E-01   -0.34125E-01  4028   0.408E+00    0.226E+00
DAV:  13     0.671074227641E+02    0.39835E-01   -0.24688E-01  4028   0.335E+00    0.200E+00
DAV:  14     0.671537436093E+02    0.46321E-01   -0.14487E-01  4180   0.350E+00    0.141E+00
DAV:  15     0.671684336635E+02    0.14690E-01   -0.56503E-02  4660   0.229E+00    0.110E+00
DAV:  16     0.671818169382E+02    0.13383E-01   -0.54288E-02  3820   0.153E+00    0.500E-01
DAV:  17     0.671813878441E+02   -0.42909E-03   -0.25554E-02  3482   0.118E+00    0.323E-01
DAV:  18     0.671814479388E+02    0.60095E-04   -0.57611E-03  3620   0.740E-01    0.245E-01
DAV:  19     0.671818787882E+02    0.43085E-03   -0.39511E-03  4874   0.784E-01    0.145E-01
DAV:  20     0.671815149130E+02   -0.36388E-03   -0.34270E-03  4044   0.460E-01    0.618E-02
DAV:  21     0.671809867323E+02   -0.52818E-03   -0.91502E-04  3018   0.241E-01    0.428E-02
DAV:  22     0.671809151568E+02   -0.71575E-04   -0.21687E-04  3332   0.145E-01    0.326E-02
DAV:  23     0.671807529644E+02   -0.16219E-03   -0.70079E-05  3244   0.991E-02    0.214E-02
DAV:  24     0.671805697693E+02   -0.18320E-03   -0.61287E-05  3660   0.110E-01    0.198E-02
DAV:  25     0.671804115543E+02   -0.15822E-03   -0.38783E-05  3900   0.360E-02    0.993E-03
DAV:  26     0.671802743800E+02   -0.13717E-03   -0.24491E-05  3284   0.618E-02    0.802E-03
DAV:  27     0.671802277566E+02   -0.46623E-04   -0.51048E-06  2740   0.247E-02    0.706E-03
DAV:  28     0.671801482053E+02   -0.79551E-04   -0.16560E-05  3428   0.285E-02    0.470E-03
DAV:  29     0.671801284552E+02   -0.19750E-04   -0.37584E-06  2340   0.191E-02    0.340E-03
DAV:  30     0.671801215907E+02   -0.68645E-05   -0.28786E-06  2252   0.133E-02    0.234E-03
DAV:  31     0.671801160097E+02   -0.55810E-05   -0.92436E-07  1932   0.943E-03    0.139E-03
DAV:  32     0.671801137173E+02   -0.22925E-05   -0.55089E-07  1812   0.698E-03    0.127E-03
DAV:  33     0.671801123237E+02   -0.13936E-05   -0.48632E-07  1788   0.476E-03    0.103E-03
DAV:  34     0.671801113723E+02   -0.95140E-06   -0.22877E-07  1788   0.304E-03
  27 F= 0.67180111E+02 E0= 0.67222254E+02  d E =0.248286E+03
       N       E                     dE             d eps       ncg     rms          rms(c)
DAV:   1    -0.166839547539E+03   -0.23402E+03   -0.91598E+03  3557   0.226E+02    0.427E+01
DAV:   2    -0.191578012141E+03   -0.24738E+02   -0.44548E+02  3948   0.654E+01    0.254E+01
DAV:   3    -0.186593100645E+03    0.49849E+01   -0.30748E+01  3540   0.683E+01    0.217E+01
DAV:   4    -0.189828500168E+03   -0.32354E+01   -0.15965E+01  4260   0.572E+01    0.172E+01
DAV:   5    -0.188624944156E+03    0.12036E+01   -0.16950E+01  3460   0.923E+01    0.240E+01
DAV:   6    -0.184109710659E+03    0.45152E+01   -0.22806E+01  4540   0.545E+01    0.105E+01
DAV:   7    -0.183611165173E+03    0.49855E+00   -0.96811E+00  3748   0.352E+01    0.133E+01
DAV:   8    -0.183105400741E+03    0.50576E+00   -0.10439E+01  3980   0.272E+01    0.692E+00
DAV:   9    -0.182813469741E+03    0.29193E+00   -0.35630E+00  3316   0.133E+01    0.332E+00
DAV:  10    -0.182826367575E+03   -0.12898E-01   -0.99350E-01  3916   0.657E+00    0.205E+00
DAV:  11    -0.182851429641E+03   -0.25062E-01   -0.72745E-01  3188   0.379E+00    0.286E+00
DAV:  12    -0.182850420079E+03    0.10096E-02   -0.50992E-02  3355   0.176E+00    0.256E+00
DAV:  13    -0.182836986419E+03    0.13434E-01   -0.28158E-01  4372   0.114E+00    0.120E+00
DAV:  14    -0.182843726160E+03   -0.67397E-02   -0.12623E-02  3586   0.104E+00    0.970E-01
DAV:  15    -0.182843765755E+03   -0.39595E-04   -0.12360E-02  3780   0.712E-01    0.290E-01
DAV:  16    -0.182852428893E+03   -0.86631E-02   -0.44420E-02  4108   0.463E-01    0.118E+00
DAV:  17    -0.182847883134E+03    0.45458E-02   -0.19968E-02  3700   0.410E-01    0.227E-01
DAV:  18    -0.182850919451E+03   -0.30363E-02   -0.72370E-03  3716   0.264E-01    0.386E-01
DAV:  19    -0.182851103952E+03   -0.18450E-03   -0.29672E-03  3660   0.170E-01    0.280E-02
DAV:  20    -0.182851925258E+03   -0.82131E-03   -0.19419E-04  3836   0.108E-01    0.367E-02
DAV:  21    -0.182852567291E+03   -0.64203E-03   -0.10294E-04  3876   0.588E-02    0.918E-03
DAV:  22    -0.182852941608E+03   -0.37432E-03   -0.56268E-05  3804   0.430E-02    0.314E-02
DAV:  23    -0.182853149556E+03   -0.20795E-03   -0.19501E-05  3403   0.264E-02    0.176E-02
DAV:  24    -0.182853264198E+03   -0.11464E-03   -0.26421E-05  2683   0.192E-02    0.197E-02
DAV:  25    -0.182853366816E+03   -0.10262E-03   -0.71366E-06  3034   0.125E-02    0.193E-02
DAV:  26    -0.182853410471E+03   -0.43654E-04   -0.60418E-06  2060   0.123E-02    0.375E-03
DAV:  27    -0.182853431900E+03   -0.21430E-04   -0.30845E-06  2090   0.831E-03    0.135E-02
DAV:  28    -0.182853449027E+03   -0.17126E-04   -0.32496E-06  1787   0.640E-03    0.185E-03
DAV:  29    -0.182853456139E+03   -0.71124E-05   -0.15470E-06  1940   0.614E-03    0.617E-03
DAV:  30    -0.182853458842E+03   -0.27031E-05   -0.85087E-07  1746   0.465E-03    0.117E-03
DAV:  31    -0.182853461882E+03   -0.30402E-05   -0.27265E-07  1675   0.252E-03    0.212E-03
DAV:  32    -0.182853464733E+03   -0.28504E-05   -0.22120E-07  1700   0.287E-03    0.410E-03
DAV:  33    -0.182853466829E+03   -0.20961E-05   -0.68713E-07  1700   0.225E-03    0.191E-03
DAV:  34    -0.182853468369E+03   -0.15397E-05   -0.13535E-07  1708   0.158E-03    0.677E-04
DAV:  35    -0.182853468866E+03   -0.49704E-06   -0.68859E-08  1588   0.102E-03
  28 F= -.18285347E+03 E0= -.18279883E+03  d E =-.174772E+01
       N       E                     dE             d eps       ncg     rms          rms(c)
DAV:   1    -0.182774708139E+03    0.78760E-01   -0.69044E+01  2730   0.154E+01    0.537E+00
DAV:   2    -0.188669499600E+03   -0.58948E+01   -0.79857E+01  5147   0.196E+01    0.131E+01
DAV:   3    -0.184193515502E+03    0.44760E+01   -0.21261E+00  4936   0.239E+01    0.106E+01
DAV:   4    -0.183568449073E+03    0.62507E+00   -0.12188E+00  3986   0.106E+01    0.927E+00
DAV:   5    -0.183424091517E+03    0.14436E+00   -0.62420E+00  4499   0.508E+00    0.111E+01
DAV:   6    -0.183015354201E+03    0.40874E+00   -0.53272E-01  3643   0.198E+00    0.717E+00
DAV:   7    -0.182846757579E+03    0.16860E+00   -0.14397E+00  3819   0.237E+00    0.170E+00
DAV:   8    -0.182891491364E+03   -0.44734E-01   -0.33821E-02  3593   0.713E-01    0.186E+00
DAV:   9    -0.182906822748E+03   -0.15331E-01   -0.33863E-01  3842   0.105E+00    0.243E+00
DAV:  10    -0.182882356288E+03    0.24466E-01   -0.14505E-01  3906   0.107E+00    0.398E-01
DAV:  11    -0.182888768001E+03   -0.64117E-02   -0.37664E-03  3876   0.693E-01    0.420E-01
DAV:  12    -0.182889230155E+03   -0.46215E-03   -0.11766E-03  3378   0.455E-01    0.479E-01
DAV:  13    -0.182888506812E+03    0.72334E-03   -0.63574E-03  4052   0.141E-01    0.116E-01
DAV:  14    -0.182888691076E+03   -0.18426E-03   -0.47641E-04  3524   0.139E-01    0.414E-02
DAV:  15    -0.182888685750E+03    0.53254E-05   -0.71242E-05  4052   0.636E-02    0.473E-02
DAV:  16    -0.182888731332E+03   -0.45582E-04   -0.14777E-04  3908   0.526E-02    0.120E-01
DAV:  17    -0.182888705686E+03    0.25646E-04   -0.12162E-04  3388   0.419E-02    0.500E-02
DAV:  18    -0.182888742015E+03   -0.36329E-04   -0.23090E-04  2596   0.212E-02    0.625E-02
DAV:  19    -0.182888743019E+03   -0.10044E-05   -0.49209E-05  2780   0.184E-02    0.184E-02
DAV:  20    -0.182888750959E+03   -0.79397E-05   -0.54166E-06  2164   0.125E-02    0.710E-03
DAV:  21    -0.182888755122E+03   -0.41627E-05   -0.11274E-06  2004   0.970E-03    0.571E-03
DAV:  22    -0.182888758345E+03   -0.32236E-05   -0.35108E-06  1756   0.568E-03    0.873E-03
DAV:  23    -0.182888762473E+03   -0.41277E-05   -0.69122E-07  1884   0.491E-03    0.792E-03
DAV:  24    -0.182888764431E+03   -0.19581E-05   -0.26026E-06  1732   0.399E-03    0.386E-03
DAV:  25    -0.182888765939E+03   -0.15073E-05   -0.28545E-07  1756   0.284E-03    0.404E-03
DAV:  26    -0.182888766863E+03   -0.92445E-06   -0.71608E-07  1676   0.200E-03
  29 F= -.18288877E+03 E0= -.18283388E+03  d E =-.178302E+01
       N       E                     dE             d eps       ncg     rms          rms(c)
DAV:   1    -0.182945209046E+03   -0.56443E-01   -0.49517E+00  2733   0.387E+00    0.161E+00
DAV:   2    -0.184274886099E+03   -0.13297E+01   -0.13879E+01  5108   0.560E+00    0.962E+00
DAV:   3    -0.182957463893E+03    0.13174E+01   -0.30958E-01  4964   0.627E+00    0.417E+00
DAV:   4    -0.182941174948E+03    0.16289E-01   -0.12340E-01  4260   0.204E+00    0.218E+00
DAV:   5    -0.182940606951E+03    0.56800E-03   -0.11091E-01  4188   0.170E+00    0.362E-01
DAV:   6    -0.182947853479E+03   -0.72465E-02   -0.69221E-03  3612   0.114E+00    0.420E-01
DAV:   7    -0.182948675548E+03   -0.82207E-03   -0.17705E-02  3300   0.725E-01    0.529E-01
DAV:   8    -0.182948124329E+03    0.55122E-03   -0.13790E-03  3180   0.458E-01    0.439E-01
DAV:   9    -0.182947529648E+03    0.59468E-03   -0.24426E-03  3588   0.135E-01    0.879E-02
DAV:  10    -0.182947588687E+03   -0.59039E-04   -0.23975E-04  3228   0.114E-01    0.178E-02
DAV:  11    -0.182947620460E+03   -0.31774E-04   -0.95871E-05  3844   0.489E-02    0.475E-02
DAV:  12    -0.182947618858E+03    0.16026E-05   -0.27361E-05  3356   0.408E-02    0.192E-02
DAV:  13    -0.182947621237E+03   -0.23799E-05   -0.14803E-05  2260   0.211E-02    0.868E-03
DAV:  14    -0.182947624642E+03   -0.34046E-05   -0.22379E-06  2012   0.924E-03    0.935E-03
DAV:  15    -0.182947626782E+03   -0.21401E-05   -0.82972E-07  1700   0.934E-03    0.659E-03
DAV:  16    -0.182947628399E+03   -0.16168E-05   -0.99255E-07  1732   0.549E-03    0.871E-04
DAV:  17    -0.182947630235E+03   -0.18361E-05   -0.63113E-07  1756   0.274E-03    0.290E-03
DAV:  18    -0.182947631450E+03   -0.12147E-05   -0.26804E-07  1724   0.393E-03    0.230E-03
DAV:  19    -0.182947632327E+03   -0.87754E-06   -0.26485E-07  1668   0.221E-03
[...]
DAV:   1    -0.189774729298E+03    0.42168E-01   -0.29625E+01  2732   0.919E+00    0.183E+00
DAV:   2    -0.190967434977E+03   -0.11927E+01   -0.11511E+01  5106   0.487E+00    0.121E+01
DAV:   3    -0.189767475946E+03    0.12000E+01   -0.21123E+00  4193   0.596E+00    0.129E+00
DAV:   4    -0.189828457092E+03   -0.60981E-01   -0.18205E-01  3567   0.314E+00    0.906E-01
DAV:   5    -0.189829381627E+03   -0.92453E-03   -0.73106E-02  3536   0.243E+00    0.704E-01
DAV:   6    -0.189830316082E+03   -0.93446E-03   -0.11658E-02  3386   0.169E+00    0.480E-01
DAV:   7    -0.189829940822E+03    0.37526E-03   -0.11402E-02  3335   0.132E+00    0.151E-01
DAV:   8    -0.189830184894E+03   -0.24407E-03   -0.23803E-03  3343   0.948E-01    0.134E-01
DAV:   9    -0.189830160491E+03    0.24404E-04   -0.11937E-03  3996   0.353E-01    0.550E-02
DAV:  10    -0.189830189051E+03   -0.28560E-04   -0.47615E-04  3300   0.206E-01    0.274E-02
DAV:  11    -0.189830201854E+03   -0.12804E-04   -0.10744E-04  3268   0.725E-02    0.304E-02
DAV:  12    -0.189830199723E+03    0.21318E-05   -0.41593E-05  3620   0.584E-02    0.797E-03
DAV:  13    -0.189830201597E+03   -0.18740E-05   -0.61030E-06  2860   0.372E-02    0.298E-03
DAV:  14    -0.189830202593E+03   -0.99628E-06   -0.18802E-06  1956   0.135E-02
 219 F= -.18983020E+03 E0= -.18978751E+03  d E =-.259679E-01
       N       E                     dE             d eps       ncg     rms          rms(c)
DAV:   1    -0.189824043889E+03    0.61577E-02   -0.42135E+00  2733   0.345E+00    0.715E-01
DAV:   2    -0.190047652945E+03   -0.22361E+00   -0.19969E+00  5117   0.197E+00    0.751E+00
DAV:   3    -0.189798557149E+03    0.24910E+00   -0.16342E+00  4233   0.228E+00    0.632E-01
DAV:   4    -0.189829834173E+03   -0.31277E-01   -0.27765E-02  3448   0.109E+00    0.231E-01
DAV:   5    -0.189830828312E+03   -0.99414E-03   -0.54966E-03  3476   0.109E+00    0.186E-01
DAV:   6    -0.189831099971E+03   -0.27166E-03   -0.25005E-03  3352   0.111E+00    0.952E-02
DAV:   7    -0.189831146404E+03   -0.46432E-04   -0.10298E-03  4128   0.690E-01    0.762E-02
DAV:   8    -0.189831116096E+03    0.30308E-04   -0.49694E-04  3636   0.369E-01    0.243E-02
DAV:   9    -0.189831131191E+03   -0.15095E-04   -0.18518E-04  3388   0.128E-01    0.113E-02
DAV:  10    -0.189831134789E+03   -0.35985E-05   -0.46140E-05  3252   0.435E-02    0.101E-02
DAV:  11    -0.189831135694E+03   -0.90431E-06   -0.17738E-05  3260   0.505E-02    0.655E-03
DAV:  12    -0.189831135615E+03    0.78406E-07   -0.28041E-06  1772   0.264E-02
 220 F= -.18983114E+03 E0= -.18978900E+03  d E =-.269009E-01
       N       E                     dE             d eps       ncg     rms          rms(c)
DAV:   1    -0.189833706673E+03   -0.25710E-02   -0.36677E+00  2733   0.315E+00    0.581E-01
DAV:   2    -0.189910375933E+03   -0.76669E-01   -0.67259E-01  4380   0.109E+00    0.429E+00
DAV:   3    -0.189829694312E+03    0.80682E-01   -0.71554E-01  4074   0.147E+00    0.895E-01
DAV:   4    -0.189839324439E+03   -0.96301E-02   -0.25668E-02  3368   0.126E+00    0.258E-01
DAV:   5    -0.189840000806E+03   -0.67637E-03   -0.38722E-03  3449   0.113E+00    0.238E-01
DAV:   6    -0.189839944420E+03    0.56386E-04   -0.29438E-03  3350   0.108E+00    0.767E-02
DAV:   7    -0.189840078541E+03   -0.13412E-03   -0.10122E-03  4024   0.637E-01    0.561E-02
DAV:   8    -0.189840040803E+03    0.37738E-04   -0.32276E-04  4116   0.330E-01    0.149E-02
DAV:   9    -0.189840051813E+03   -0.11010E-04   -0.11833E-04  3684   0.773E-02    0.121E-02
DAV:  10    -0.189840052743E+03   -0.93033E-06   -0.24118E-05  3212   0.432E-02    0.705E-03
DAV:  11    -0.189840052965E+03   -0.22224E-06   -0.94132E-06  2876   0.406E-02
 221 F= -.18984005E+03 E0= -.18979845E+03  d E =-.891735E-02
       N       E                     dE             d eps       ncg     rms          rms(c)
DAV:   1    -0.189796281678E+03    0.43771E-01   -0.32877E+01  2732   0.949E+00    0.175E+00
DAV:   2    -0.190453155576E+03   -0.65687E+00   -0.60456E+00  4318   0.364E+00    0.107E+01
DAV:   3    -0.189845208435E+03    0.60795E+00   -0.40902E+00  4242   0.445E+00    0.288E+00
DAV:   4    -0.189857522351E+03   -0.12314E-01   -0.28000E-01  3472   0.421E+00    0.780E-01
DAV:   5    -0.189861412445E+03   -0.38901E-02   -0.34947E-02  3432   0.298E+00    0.831E-01
DAV:   6    -0.189860115016E+03    0.12974E-02   -0.22638E-02  3293   0.292E+00    0.331E-01
DAV:   7    -0.189860358797E+03   -0.24378E-03   -0.87672E-03  3952   0.206E+00    0.166E-01
DAV:   8    -0.189860172994E+03    0.18580E-03   -0.34093E-03  4260   0.107E+00    0.835E-02
DAV:   9    -0.189860291269E+03   -0.11827E-03   -0.12162E-03  3644   0.294E-01    0.594E-02
DAV:  10    -0.189860295958E+03   -0.46887E-05   -0.34991E-04  3268   0.142E-01    0.264E-02
DAV:  11    -0.189860303517E+03   -0.75598E-05   -0.10454E-04  3204   0.130E-01    0.157E-02
DAV:  12    -0.189860304934E+03   -0.14162E-05   -0.27640E-05  3700   0.643E-02    0.102E-02
DAV:  13    -0.189860305681E+03   -0.74710E-06   -0.10965E-05  3188   0.382E-02    0.301E-03
DAV:  14    -0.189860306634E+03   -0.95292E-06   -0.21128E-06  1788   0.153E-02
 222 F= -.18986031E+03 E0= -.18982023E+03  d E =-.291710E-01
       N       E                     dE             d eps       ncg     rms          rms(c)
DAV:   1    -0.189549757897E+03    0.31055E+00   -0.13039E+02  2731   0.192E+01    0.349E+00
DAV:   2    -0.191467967080E+03   -0.19182E+01   -0.17491E+01  4356   0.785E+00    0.131E+01
DAV:   3    -0.189977878611E+03    0.14901E+01   -0.19064E+00  4347   0.891E+00    0.559E+00
DAV:   4    -0.189860954272E+03    0.11692E+00   -0.13566E+00  3506   0.861E+00    0.150E+00
DAV:   5    -0.189874387577E+03   -0.13433E-01   -0.19186E-01  3466   0.504E+00    0.174E+00
DAV:   6    -0.189870352878E+03    0.40347E-02   -0.78624E-02  3498   0.424E+00    0.777E-01
DAV:   7    -0.189868995003E+03    0.13579E-02   -0.40648E-02  3480   0.269E+00    0.335E-01
DAV:   8    -0.189869997632E+03   -0.10026E-02   -0.76821E-03  4648   0.121E+00    0.264E-01
DAV:   9    -0.189869676349E+03    0.32128E-03   -0.32184E-03  3338   0.776E-01    0.142E-01
DAV:  10    -0.189869705300E+03   -0.28951E-04   -0.11851E-03  3388   0.240E-01    0.420E-02
DAV:  11    -0.189869781588E+03   -0.76288E-04   -0.44598E-04  3180   0.260E-01    0.383E-02
DAV:  12    -0.189869778605E+03    0.29825E-05   -0.11872E-04  3276   0.147E-01    0.108E-02
DAV:  13    -0.189869783231E+03   -0.46259E-05   -0.29036E-05  3828   0.553E-02    0.669E-03
DAV:  14    -0.189869785343E+03   -0.21113E-05   -0.86035E-06  2788   0.334E-02    0.455E-03
DAV:  15    -0.189869787994E+03   -0.26515E-05   -0.35154E-06  2428   0.213E-02    0.237E-03
DAV:  16    -0.189869789727E+03   -0.17325E-05   -0.11377E-06  1836   0.988E-03    0.144E-03
DAV:  17    -0.189869790626E+03   -0.89919E-06   -0.55390E-07  1572   0.829E-03
 223 F= -.18986979E+03 E0= -.18983247E+03  d E =-.386550E-01
       N       E                     dE             d eps       ncg     rms          rms(c)
DAV:   1    -0.189836969920E+03    0.32820E-01   -0.16585E+01  2731   0.687E+00    0.137E+00
DAV:   2    -0.190202264863E+03   -0.36529E+00   -0.37214E+00  4891   0.279E+00    0.664E+00
DAV:   3    -0.189859875809E+03    0.34239E+00   -0.16610E+00  4576   0.395E+00    0.140E+00
DAV:   4    -0.189870820347E+03   -0.10945E-01   -0.13304E-01  3632   0.291E+00    0.622E-01
DAV:   5    -0.189872897483E+03   -0.20771E-02   -0.42276E-02  3426   0.256E+00    0.469E-01
DAV:   6    -0.189872071481E+03    0.82600E-03   -0.10316E-02  3584   0.215E+00    0.178E-01
DAV:   7    -0.189872333231E+03   -0.26175E-03   -0.43377E-03  3990   0.129E+00    0.119E-01
DAV:   8    -0.189872149708E+03    0.18352E-03   -0.16106E-03  3432   0.790E-01    0.499E-02
DAV:   9    -0.189872210884E+03   -0.61176E-04   -0.99483E-04  3500   0.179E-01    0.468E-02
DAV:  10    -0.189872214512E+03   -0.36284E-05   -0.16191E-04  3204   0.116E-01    0.197E-02
DAV:  11    -0.189872216590E+03   -0.20785E-05   -0.52677E-05  3484   0.872E-02    0.126E-02
DAV:  12    -0.189872216822E+03   -0.23167E-06   -0.15493E-05  3948   0.363E-02    0.429E-03
DAV:  13    -0.189872217312E+03   -0.48947E-06   -0.23695E-06  1732   0.228E-02
 224 F= -.18987222E+03 E0= -.18983397E+03  d E =-.410817E-01
       N       E                     dE             d eps       ncg     rms          rms(c)
DAV:   1    -0.189876366761E+03   -0.41499E-02   -0.28498E+00  2731   0.281E+00    0.547E-01
DAV:   2    -0.189936619734E+03   -0.60253E-01   -0.52125E-01  4693   0.113E+00    0.360E+00
DAV:   3    -0.189874880523E+03    0.61739E-01   -0.56805E-01  4066   0.143E+00    0.835E-01
DAV:   4    -0.189881018888E+03   -0.61384E-02   -0.24832E-02  3400   0.140E+00    0.252E-01
DAV:   5    -0.189881522302E+03   -0.50341E-03   -0.40673E-03  3472   0.106E+00    0.224E-01
DAV:   6    -0.189881549850E+03   -0.27548E-04   -0.24307E-03  3454   0.861E-01    0.646E-02
DAV:   7    -0.189881688370E+03   -0.13852E-03   -0.90126E-04  3856   0.612E-01    0.542E-02
DAV:   8    -0.189881638894E+03    0.49476E-04   -0.30321E-04  4023   0.348E-01    0.159E-02
DAV:   9    -0.189881648643E+03   -0.97494E-05   -0.11036E-04  3820   0.680E-02    0.110E-02
DAV:  10    -0.189881649773E+03   -0.11296E-05   -0.22536E-05  3100   0.488E-02    0.779E-03
DAV:  11    -0.189881649867E+03   -0.94296E-07   -0.71332E-06  2588   0.335E-02
 225 F= -.18988165E+03 E0= -.18984381E+03  d E =-.943256E-02
       N       E                     dE             d eps       ncg     rms          rms(c)
DAV:   1    -0.189849092349E+03    0.32557E-01   -0.25603E+01  2731   0.846E+00    0.162E+00
DAV:   2    -0.190347631477E+03   -0.49854E+00   -0.43421E+00  4536   0.370E+00    0.959E+00
DAV:   3    -0.189892809603E+03    0.45482E+00   -0.38651E+00  4275   0.415E+00    0.272E+00
DAV:   4    -0.189897992579E+03   -0.51830E-02   -0.24851E-01  3520   0.457E+00    0.842E-01
DAV:   5    -0.189900581231E+03   -0.25887E-02   -0.31928E-02  3376   0.295E+00    0.789E-01
DAV:   6    -0.189898935472E+03    0.16458E-02   -0.21335E-02  3559   0.243E+00    0.257E-01
DAV:   7    -0.189899790218E+03   -0.85475E-03   -0.76081E-03  3840   0.184E+00    0.158E-01
DAV:   8    -0.189899460836E+03    0.32938E-03   -0.27522E-03  3962   0.104E+00    0.785E-02
DAV:   9    -0.189899550780E+03   -0.89944E-04   -0.10959E-03  3716   0.225E-01    0.565E-02
DAV:  10    -0.189899555104E+03   -0.43242E-05   -0.23920E-04  3292   0.149E-01    0.374E-02
DAV:  11    -0.189899555168E+03   -0.64319E-07   -0.85812E-05  3300   0.111E-01    0.166E-02
DAV:  12    -0.189899559111E+03   -0.39425E-05   -0.23590E-05  3932   0.377E-02    0.106E-02
DAV:  13    -0.189899559712E+03   -0.60123E-06   -0.62432E-06  2603   0.318E-02
 226 F= -.18989956E+03 E0= -.18986288E+03  d E =-.273424E-01
       N       E                     dE             d eps       ncg     rms          rms(c)
DAV:   1    -0.189629087405E+03    0.27047E+00   -0.10194E+02  2731   0.170E+01    0.319E+00
DAV:   2    -0.190995339443E+03   -0.13663E+01   -0.11455E+01  4556   0.807E+00    0.123E+01
DAV:   3    -0.190000121900E+03    0.99522E+00   -0.54499E+00  4408   0.775E+00    0.547E+00
DAV:   4    -0.189864789641E+03    0.13533E+00   -0.10337E+00  3594   0.918E+00    0.172E+00
DAV:   5    -0.189874141644E+03   -0.93520E-02   -0.12170E-01  3433   0.531E+00    0.170E+00
DAV:   6    -0.189866314860E+03    0.78268E-02   -0.90624E-02  3808   0.423E+00    0.600E-01
DAV:   7    -0.189867585579E+03   -0.12707E-02   -0.28780E-02  3888   0.296E+00    0.280E-01
DAV:   8    -0.189867426111E+03    0.15947E-03   -0.81420E-03  4090   0.180E+00    0.246E-01
DAV:   9    -0.189867279063E+03    0.14705E-03   -0.34805E-03  3824   0.575E-01    0.140E-01
DAV:  10    -0.189867322166E+03   -0.43103E-04   -0.11130E-03  3356   0.319E-01    0.842E-02
DAV:  11    -0.189867340645E+03   -0.18479E-04   -0.47379E-04  3340   0.245E-01    0.300E-02
DAV:  12    -0.189867365910E+03   -0.25265E-04   -0.12275E-04  3724   0.919E-02    0.117E-02
DAV:  13    -0.189867372171E+03   -0.62604E-05   -0.21814E-05  3436   0.583E-02    0.685E-03
DAV:  14    -0.189867374622E+03   -0.24509E-05   -0.54909E-06  2924   0.309E-02    0.337E-03
DAV:  15    -0.189867378447E+03   -0.38257E-05   -0.46742E-06  2716   0.217E-02    0.253E-03
DAV:  16    -0.189867379323E+03   -0.87562E-06   -0.11063E-06  1660   0.119E-02
 227 F= -.18986738E+03 E0= -.18983277E+03  d E =0.483799E-02
       N       E                     dE             d eps       ncg     rms          rms(c)
DAV:   1    -0.189712948289E+03    0.15443E+00   -0.71798E+01  2731   0.144E+01    0.299E+00
DAV:   2    -0.190869324562E+03   -0.11564E+01   -0.13051E+01  4971   0.608E+00    0.829E+00
DAV:   3    -0.189917401048E+03    0.95192E+00   -0.12727E+00  4874   0.864E+00    0.243E+00
DAV:   4    -0.189917264716E+03    0.13633E-03   -0.76190E-01  3713   0.737E+00    0.242E+00
DAV:   5    -0.189933070255E+03   -0.15806E-01   -0.89537E-01  3570   0.553E+00    0.278E+00
DAV:   6    -0.189896698499E+03    0.36372E-01   -0.30985E-01  4352   0.240E+00    0.452E-01
DAV:   7    -0.189915056031E+03   -0.18358E-01   -0.12490E-01  4289   0.202E+00    0.172E+00
DAV:   8    -0.189898210374E+03    0.16846E-01   -0.10857E-01  3486   0.171E+00    0.163E-01
DAV:   9    -0.189901350377E+03   -0.31400E-02   -0.46997E-03  3743   0.752E-01    0.220E-01
DAV:  10    -0.189901201965E+03    0.14841E-03   -0.28740E-03  3324   0.365E-01    0.371E-02
DAV:  11    -0.189901275622E+03   -0.73656E-04   -0.33661E-04  3260   0.147E-01    0.350E-02
DAV:  12    -0.189901279641E+03   -0.40194E-05   -0.18182E-04  3308   0.923E-02    0.313E-02
DAV:  13    -0.189901279683E+03   -0.41677E-07   -0.43741E-05  3300   0.727E-02    0.994E-03
DAV:  14    -0.189901281405E+03   -0.17222E-05   -0.16529E-05  3476   0.290E-02    0.104E-02
DAV:  15    -0.189901281939E+03   -0.53423E-06   -0.48396E-06  1924   0.165E-02
 228 F= -.18990128E+03 E0= -.18986497E+03  d E =-.290646E-01
       N       E                     dE             d eps       ncg     rms          rms(c)
DAV:   1    -0.189901047535E+03    0.23387E-03   -0.15401E-01  2733   0.657E-01    0.135E-01
DAV:   2    -0.189904597404E+03   -0.35499E-02   -0.31150E-02  4962   0.279E-01    0.827E-01
DAV:   3    -0.189900783056E+03    0.38143E-02   -0.33785E-02  4289   0.378E-01    0.189E-01
DAV:   4    -0.189901268967E+03   -0.48591E-03   -0.15161E-03  3597   0.362E-01    0.541E-02
DAV:   5    -0.189901319531E+03   -0.50565E-04   -0.22792E-04  3450   0.245E-01    0.439E-02
DAV:   6    -0.189901351206E+03   -0.31675E-04   -0.10919E-04  3592   0.187E-01    0.154E-02
DAV:   7    -0.189901356633E+03   -0.54267E-05   -0.51515E-05  3672   0.145E-01    0.132E-02
DAV:   8    -0.189901353682E+03    0.29512E-05   -0.16381E-05  3556   0.826E-02    0.302E-03
DAV:   9    -0.189901354253E+03   -0.57078E-06   -0.57889E-06  2468   0.154E-02
 229 F= -.18990135E+03 E0= -.18986512E+03  d E =-.291369E-01
       N       E                     dE             d eps       ncg     rms          rms(c)
DAV:   1    -0.189905503845E+03   -0.41502E-02   -0.49873E-02  2736   0.461E-01    0.587E-02
DAV:   2    -0.189906390683E+03   -0.88684E-03   -0.82861E-03  4105   0.197E-01    0.406E-01
DAV:   3    -0.189905374902E+03    0.10158E-02   -0.67713E-03  4088   0.173E-01    0.515E-02
DAV:   4    -0.189905591157E+03   -0.21625E-03   -0.32795E-04  3248   0.241E-01    0.393E-02
DAV:   5    -0.189905587149E+03    0.40077E-05   -0.59347E-05  3801   0.126E-01    0.221E-02
DAV:   6    -0.189905591690E+03   -0.45407E-05   -0.32019E-05  4264   0.107E-01    0.148E-02
DAV:   7    -0.189905589874E+03    0.18161E-05   -0.19613E-05  3519   0.941E-02    0.961E-03
DAV:   8    -0.189905589649E+03    0.22526E-06   -0.81001E-06  3060   0.286E-02
 230 F= -.18990559E+03 E0= -.18986936E+03  d E =-.423540E-02
       N       E                     dE             d eps       ncg     rms          rms(c)
DAV:   1    -0.189914170948E+03   -0.85811E-02   -0.44899E-01  2731   0.138E+00    0.176E-01
DAV:   2    -0.189922147087E+03   -0.79761E-02   -0.74580E-02  4186   0.577E-01    0.120E+00
DAV:   3    -0.189913872316E+03    0.82748E-02   -0.60000E-02  4096   0.525E-01    0.151E-01
DAV:   4    -0.189914993252E+03   -0.11209E-02   -0.28378E-03  3246   0.688E-01    0.118E-01
DAV:   5    -0.189914945916E+03    0.47336E-04   -0.54464E-04  3601   0.389E-01    0.658E-02
DAV:   6    -0.189914980609E+03   -0.34693E-04   -0.29925E-04  4264   0.302E-01    0.417E-02
DAV:   7    -0.189914971059E+03    0.95505E-05   -0.16076E-04  3559   0.272E-01    0.316E-02
DAV:   8    -0.189914967601E+03    0.34575E-05   -0.80381E-05  4070   0.874E-02    0.957E-03
DAV:   9    -0.189914969238E+03   -0.16369E-05   -0.17548E-05  3604   0.375E-02    0.510E-03
DAV:  10    -0.189914969697E+03   -0.45885E-06   -0.66174E-06  2618   0.205E-02
 231 F= -.18991497E+03 E0= -.18987877E+03  d E =-.136154E-01
       N       E                     dE             d eps       ncg     rms          rms(c)
DAV:   1    -0.189915028067E+03   -0.58829E-04   -0.18010E+00  2731   0.277E+00    0.348E-01
DAV:   2    -0.189944938547E+03   -0.29910E-01   -0.28250E-01  4138   0.112E+00    0.229E+00
DAV:   3    -0.189915771206E+03    0.29167E-01   -0.21449E-01  4080   0.103E+00    0.286E-01
DAV:   4    -0.189918389078E+03   -0.26179E-02   -0.11501E-02  3343   0.137E+00    0.250E-01
DAV:   5    -0.189918067077E+03    0.32200E-03   -0.23190E-03  3696   0.792E-01    0.130E-01
DAV:   6    -0.189918186348E+03   -0.11927E-03   -0.12597E-03  4335   0.598E-01    0.802E-02
DAV:   7    -0.189918159807E+03    0.26541E-04   -0.61737E-04  3551   0.554E-01    0.646E-02
DAV:   8    -0.189918142175E+03    0.17632E-04   -0.33688E-04  4103   0.183E-01    0.146E-02
DAV:   9    -0.189918151616E+03   -0.94412E-05   -0.72110E-05  3724   0.715E-02    0.109E-02
DAV:  10    -0.189918153217E+03   -0.16011E-05   -0.24275E-05  3180   0.398E-02    0.115E-02
DAV:  11    -0.189918152806E+03    0.41118E-06   -0.71744E-06  3196   0.284E-02
 232 F= -.18991815E+03 E0= -.18988199E+03  d E =-.167986E-01
       N       E                     dE             d eps       ncg     rms          rms(c)
DAV:   1    -0.189919091651E+03   -0.93843E-03   -0.23284E-01  2732   0.998E-01    0.128E-01
DAV:   2    -0.189923238694E+03   -0.41470E-02   -0.38761E-02  4121   0.425E-01    0.890E-01
DAV:   3    -0.189918726781E+03    0.45119E-02   -0.31402E-02  4136   0.363E-01    0.113E-01
DAV:   4    -0.189919480339E+03   -0.75356E-03   -0.14375E-03  3277   0.516E-01    0.829E-02
DAV:   5    -0.189919468528E+03    0.11811E-04   -0.29299E-04  3832   0.290E-01    0.460E-02
DAV:   6    -0.189919489317E+03   -0.20789E-04   -0.16048E-04  4306   0.244E-01    0.318E-02
DAV:   7    -0.189919480616E+03    0.87006E-05   -0.88870E-05  3648   0.200E-01    0.189E-02
DAV:   8    -0.189919480982E+03   -0.36613E-06   -0.37816E-05  4108   0.547E-02    0.711E-03
DAV:   9    -0.189919481307E+03   -0.32433E-06   -0.71748E-06  2908   0.267E-02
 233 F= -.18991948E+03 E0= -.18988330E+03  d E =-.181271E-01
       N       E                     dE             d eps       ncg     rms          rms(c)
DAV:   1    -0.189924248886E+03   -0.47679E-02   -0.12988E-01  2738   0.742E-01    0.528E-02
DAV:   2    -0.189924667962E+03   -0.41908E-03   -0.42039E-03  4090   0.235E-01    0.185E-01
DAV:   3    -0.189924465701E+03    0.20226E-03   -0.25964E-03  3318   0.165E-01    0.893E-02
DAV:   4    -0.189924500550E+03   -0.34849E-04   -0.37299E-04  3182   0.102E-01    0.273E-02
DAV:   5    -0.189924500380E+03    0.16997E-06   -0.42182E-05  3440   0.110E-01    0.193E-02
DAV:   6    -0.189924499744E+03    0.63505E-06   -0.25828E-05  3760   0.949E-02    0.833E-03
DAV:   7    -0.189924500467E+03   -0.72265E-06   -0.16612E-05  3848   0.782E-02    0.664E-03
DAV:   8    -0.189924499766E+03    0.70065E-06   -0.42418E-06  1972   0.424E-02
 234 F= -.18992450E+03 E0= -.18988835E+03  d E =-.501846E-02
