<?xml version="1.0" encoding="ISO-8859-1"?>
<modeling>
 <generator>
  <i name="program" type="string">vasp </i>
  <i name="version" type="string">6.5.1  </i>
  <i name="subversion" type="string">10Mar25 (build Mar 14 2026 15:48:08) complex                          parallel </i>
  <i name="platform" type="string">LinuxNV </i>
  <i name="date" type="string">2026 03 24 </i>
  <i name="time" type="string">16:26:39 </i>
 </generator>
 <incar>
  <i type="string" name="SYSTEM">Cu(100) coverage-dependent binding (RPBE)</i>
  <i type="string" name="PREC">Normal</i>
  <i type="string" name="ALGO">Normal</i>
  <i type="int" name="ISPIN">     1</i>
  <i type="int" name="NELM">   200</i>
  <i type="int" name="IBRION">     2</i>
  <i name="EDIFF">      0.00000100</i>
  <i name="EDIFFG">     -0.03000000</i>
  <i type="int" name="NSW">   300</i>
  <i type="int" name="ISIF">     2</i>
  <i name="ENCUT">    450.00000000</i>
  <i type="string" name="LREAL">Auto</i>
  <i type="int" name="ISMEAR">     0</i>
  <i name="SIGMA">      0.10000000</i>
  <i type="logical" name="LWAVE"> F  </i>
  <i type="logical" name="LCHARG"> F  </i>
  <i type="int" name="LORBIT">    11</i>
  <i type="string" name="GGA">RP</i>
 </incar>
 <primitive_cell>
  <structure name="primitive_cell" >
   <crystal>
    <varray name="basis" >
     <v>       7.66857304       0.00000000       0.00000000 </v>
     <v>       0.00000000       7.66857304       0.00000000 </v>
     <v>       0.00000000       0.00000000      29.42250000 </v>
    </varray>
    <i name="volume">   1730.24932528 </i>
    <varray name="rec_basis" >
     <v>       0.13040236       0.00000000       0.00000000 </v>
     <v>       0.00000000       0.13040236       0.00000000 </v>
     <v>       0.00000000       0.00000000       0.03398759 </v>
    </varray>
   </crystal>
   <varray name="positions" >
    <v>       0.16666667       0.16666667       0.40785113 </v>
    <v>       0.50000000       0.16666667       0.40785113 </v>
    <v>       0.83333333       0.16666667       0.40785113 </v>
    <v>       0.16666667       0.50000000       0.40785113 </v>
    <v>       0.50000000       0.50000000       0.40785113 </v>
    <v>       0.83333333       0.50000000       0.40785113 </v>
    <v>       0.16666667       0.83333333       0.40785113 </v>
    <v>       0.50000000       0.83333333       0.40785113 </v>
    <v>       0.83333333       0.83333333       0.40785113 </v>
    <v>       0.00000000       0.00000000       0.46928371 </v>
    <v>       0.33333333       0.00000000       0.46928371 </v>
    <v>       0.66666667       0.00000000       0.46928371 </v>
    <v>       0.00000000       0.33333333       0.46928371 </v>
    <v>       0.33333333       0.33333333       0.46928371 </v>
    <v>       0.66666667       0.33333333       0.46928371 </v>
    <v>       0.00000000       0.66666667       0.46928371 </v>
    <v>       0.33333333       0.66666667       0.46928371 </v>
    <v>       0.66666667       0.66666667       0.46928371 </v>
    <v>       0.16666667       0.16666667       0.53071629 </v>
    <v>       0.50000000       0.16666667       0.53071629 </v>
    <v>       0.83333333       0.16666667       0.53071629 </v>
    <v>       0.16666667       0.50000000       0.53071629 </v>
    <v>       0.50000000       0.50000000       0.53071629 </v>
    <v>       0.83333333       0.50000000       0.53071629 </v>
    <v>       0.16666667       0.83333333       0.53071629 </v>
    <v>       0.50000000       0.83333333       0.53071629 </v>
    <v>       0.83333333       0.83333333       0.53071629 </v>
    <v>       0.00000000       0.00000000       0.59214887 </v>
    <v>       0.33333333       0.00000000       0.59214887 </v>
    <v>       0.66666667       0.00000000       0.59214887 </v>
    <v>       0.00000000       0.33333333       0.59214887 </v>
    <v>       0.33333333       0.33333333       0.59214887 </v>
    <v>       0.66666667       0.33333333       0.59214887 </v>
    <v>       0.00000000       0.66666667       0.59214887 </v>
    <v>       0.33333333       0.66666667       0.59214887 </v>
    <v>       0.66666667       0.66666667       0.59214887 </v>
    <v>       0.16666667       0.23553157       0.68731413 </v>
    <v>       0.16666667       0.28443245       0.64992778 </v>
    <v>       0.16666667       0.38223422       0.64992778 </v>
    <v>       0.16666667       0.43113510       0.68731413 </v>
    <v>       0.16666667       0.83333333       0.73829552 </v>
    <v>       0.16666667       0.83333333       0.77772113 </v>
    <v>       0.50000000       0.16666667       0.73829552 </v>
    <v>       0.50000000       0.16666667       0.77772113 </v>
    <v>       0.50000000       0.50000000       0.73829552 </v>
    <v>       0.50000000       0.50000000       0.77772113 </v>
    <v>       0.50000000       0.83333333       0.73829552 </v>
    <v>       0.50000000       0.83333333       0.77772113 </v>
   </varray>
  </structure>
  <varray name="primitive_index" >
   <v type="int" >        1 </v>
   <v type="int" >        2 </v>
   <v type="int" >        3 </v>
   <v type="int" >        4 </v>
   <v type="int" >        5 </v>
   <v type="int" >        6 </v>
   <v type="int" >        7 </v>
   <v type="int" >        8 </v>
   <v type="int" >        9 </v>
   <v type="int" >       10 </v>
   <v type="int" >       11 </v>
   <v type="int" >       12 </v>
   <v type="int" >       13 </v>
   <v type="int" >       14 </v>
   <v type="int" >       15 </v>
   <v type="int" >       16 </v>
   <v type="int" >       17 </v>
   <v type="int" >       18 </v>
   <v type="int" >       19 </v>
   <v type="int" >       20 </v>
   <v type="int" >       21 </v>
   <v type="int" >       22 </v>
   <v type="int" >       23 </v>
   <v type="int" >       24 </v>
   <v type="int" >       25 </v>
   <v type="int" >       26 </v>
   <v type="int" >       27 </v>
   <v type="int" >       28 </v>
   <v type="int" >       29 </v>
   <v type="int" >       30 </v>
   <v type="int" >       31 </v>
   <v type="int" >       32 </v>
   <v type="int" >       33 </v>
   <v type="int" >       34 </v>
   <v type="int" >       35 </v>
   <v type="int" >       36 </v>
   <v type="int" >       37 </v>
   <v type="int" >       38 </v>
   <v type="int" >       39 </v>
   <v type="int" >       40 </v>
   <v type="int" >       41 </v>
   <v type="int" >       42 </v>
   <v type="int" >       43 </v>
   <v type="int" >       44 </v>
   <v type="int" >       45 </v>
   <v type="int" >       46 </v>
   <v type="int" >       47 </v>
   <v type="int" >       48 </v>
  </varray>
 </primitive_cell>
 <kpoints>
  <generation param="Gamma">
   <v type="int" name="divisions">       3        3        1 </v>
   <v name="usershift">      0.00000000       0.00000000       0.00000000 </v>
   <v name="genvec1">      0.33333333       0.00000000       0.00000000 </v>
   <v name="genvec2">      0.00000000       0.33333333       0.00000000 </v>
   <v name="genvec3">      0.00000000       0.00000000       1.00000000 </v>
   <v name="shift">      0.00000000       0.00000000       0.00000000 </v>
  </generation>
  <varray name="kpointlist" >
   <v>       0.00000000       0.00000000       0.00000000 </v>
   <v>       0.33333333       0.00000000       0.00000000 </v>
   <v>       0.00000000       0.33333333       0.00000000 </v>
   <v>       0.33333333       0.33333333       0.00000000 </v>
   <v>      -0.33333333       0.33333333       0.00000000 </v>
  </varray>
  <varray name="weights" >
   <v>       0.11111111 </v>
   <v>       0.22222222 </v>
   <v>       0.22222222 </v>
   <v>       0.22222222 </v>
   <v>       0.22222222 </v>
  </varray>
 </kpoints>
 <parameters>
  <separator name="general" >
   <i type="string" name="SYSTEM">Cu(100) coverage-dependent binding (RPBE</i>
   <i type="logical" name="LCOMPAT"> F  </i>
  </separator>
  <separator name="electronic" >
   <i type="string" name="PREC">normal</i>
   <i name="ENMAX">    450.00000000</i>
   <i name="ENAUG">    644.87300000</i>
   <i name="EDIFF">      0.00000100</i>
   <i type="int" name="IALGO">    38</i>
   <i type="int" name="IWAVPR">    11</i>
   <i type="int" name="NBANDS">   273</i>
   <i type="int" name="NBANDSLOW">    -1</i>
   <i type="int" name="NBANDSHIGH">    -1</i>
   <i name="NELECT">    456.00000000</i>
   <i type="int" name="TURBO">     0</i>
   <i type="int" name="IRESTART">     0</i>
   <i type="int" name="NREBOOT">     0</i>
   <i type="int" name="NMIN">     0</i>
   <i name="EREF">      0.00000000</i>
   <separator name="electronic smearing" >
    <i type="int" name="ISMEAR">     0</i>
    <i name="SIGMA">      0.10000000</i>
    <i name="KSPACING">      0.50000000</i>
    <i type="logical" name="KGAMMA"> T  </i>
    <i type="logical" name="KBLOWUP"> T  </i>
   </separator>
   <separator name="electronic projectors" >
    <i type="logical" name="LREAL"> T  </i>
    <v name="ROPT">     -0.00050000     -0.00050000     -0.00050000     -0.00050000     -0.00050000     -0.00050000     -0.00050000     -0.00050000     -0.00050000     -0.00050000     -0.00050000     -0.00050000</v>
    <i type="int" name="LMAXPAW">  -100</i>
    <i type="int" name="LMAXMIX">     2</i>
    <i type="logical" name="NLSPLINE"> F  </i>
   </separator>
   <separator name="electronic startup" >
    <i type="int" name="ISTART">     0</i>
    <i type="int" name="ICHARG">     2</i>
    <i type="int" name="INIWAV">     1</i>
   </separator>
   <separator name="electronic spin" >
    <i type="int" name="ISPIN">     1</i>
    <i type="logical" name="LNONCOLLINEAR"> F  </i>
    <v name="MAGMOM">      1.00000000      1.00000000      1.00000000      1.00000000      1.00000000      1.00000000      1.00000000      1.00000000      1.00000000      1.00000000      1.00000000      1.00000000      1.00000000      1.00000000      1.00000000      1.00000000      1.00000000      1.00000000      1.00000000      1.00000000
      1.00000000      1.00000000      1.00000000      1.00000000      1.00000000      1.00000000      1.00000000      1.00000000      1.00000000      1.00000000      1.00000000      1.00000000      1.00000000      1.00000000      1.00000000      1.00000000      1.00000000      1.00000000      1.00000000      1.00000000
      1.00000000      1.00000000      1.00000000      1.00000000      1.00000000      1.00000000      1.00000000      1.00000000</v>
    <i name="NUPDOWN">     -1.00000000</i>
    <i type="logical" name="LSORBIT"> F  </i>
    <v name="SAXIS">      0.00000000      0.00000000      1.00000000</v>
    <i type="logical" name="LSPIRAL"> F  </i>
    <v name="QSPIRAL">      0.00000000      0.00000000      0.00000000</v>
    <i type="logical" name="LZEROZ"> F  </i>
   </separator>
   <separator name="electronic exchange-correlation" >
    <i type="logical" name="LASPH"> F  </i>
   </separator>
   <separator name="electronic convergence" >
    <i type="int" name="NELM">   200</i>
    <i type="int" name="NELMDL">    -5</i>
    <i type="int" name="NELMIN">     2</i>
    <i name="ENINI">    450.00000000</i>
    <separator name="electronic convergence detail" >
     <i type="logical" name="LDIAG"> T  </i>
     <i type="logical" name="LSUBROT"> F  </i>
     <i type="logical" name="LROBUST"> F  </i>
     <i type="int" name="ISEARCH">     0</i>
     <i name="WEIMIN">      0.00100000</i>
     <i name="EBREAK">      0.00000000</i>
     <i name="DEPER">      0.30000000</i>
     <i type="int" name="NRMM">     4</i>
     <i name="TIME">      0.40000000</i>
    </separator>
   </separator>
   <separator name="electronic mixer" >
    <i name="AMIX">      0.40000000</i>
    <i name="BMIX">      1.00000000</i>
    <i name="AMIN">      0.10000000</i>
    <i name="AMIX_MAG">      1.60000000</i>
    <i name="BMIX_MAG">      1.00000000</i>
    <separator name="electronic mixer details" >
     <i type="int" name="IMIX">     4</i>
     <i type="logical" name="MIXFIRST"> F  </i>
     <i type="int" name="MAXMIX">   -45</i>
     <i name="WC">    100.00000000</i>
     <i type="int" name="INIMIX">     1</i>
     <i type="int" name="MIXPRE">     1</i>
     <i type="int" name="MREMOVE">     5</i>
    </separator>
   </separator>
   <separator name="electronic dipolcorrection" >
    <i type="logical" name="LDIPOL"> F  </i>
    <i type="logical" name="LMONO"> F  </i>
    <i type="int" name="IDIPOL">     0</i>
    <i name="EPSILON">      1.00000000</i>
    <v name="DIPOL">   -100.00000000   -100.00000000   -100.00000000</v>
    <i name="EFIELD">      0.00000000</i>
    <i type="logical" name="LVACPOTAV"> F  </i>
   </separator>
  </separator>
  <separator name="grids" >
   <i type="int" name="NGX">    40</i>
   <i type="int" name="NGY">    40</i>
   <i type="int" name="NGZ">   160</i>
   <i type="int" name="NGXF">    80</i>
   <i type="int" name="NGYF">    80</i>
   <i type="int" name="NGZF">   320</i>
   <i type="logical" name="ADDGRID"> F  </i>
  </separator>
  <separator name="ionic" >
   <i type="int" name="NSW">   300</i>
   <i type="int" name="IBRION">     2</i>
   <i type="int" name="MDALGO">     0</i>
   <i type="int" name="ISIF">     2</i>
   <i name="PSTRESS">      0.00000000</i>
   <i name="EDIFFG">     -0.03000000</i>
   <i type="int" name="NFREE">     1</i>
   <i name="POTIM">      0.50000000</i>
   <i name="SMASS">     -3.00000000</i>
   <i name="SCALEE">      1.00000000</i>
  </separator>
  <separator name="ionic md" >
   <i name="TEBEG">      0.00010000</i>
   <i name="TEEND">      0.00010000</i>
   <i type="int" name="NBLOCK">     1</i>
   <i type="int" name="KBLOCK">   300</i>
   <i type="int" name="NPACO">   256</i>
   <i name="APACO">     10.00000000</i>
  </separator>
  <separator name="symmetry" >
   <i type="int" name="ISYM">     2</i>
   <i name="SYMPREC">      0.00001000</i>
  </separator>
  <separator name="dos" >
   <i type="int" name="LORBIT">    11</i>
   <v name="RWIGS">     -1.00000000     -1.00000000     -1.00000000     -1.00000000     -1.00000000     -1.00000000     -1.00000000     -1.00000000     -1.00000000     -1.00000000     -1.00000000     -1.00000000</v>
   <i type="int" name="NEDOS">   301</i>
   <i name="EMIN">     10.00000000</i>
   <i name="EMAX">    -10.00000000</i>
   <i name="EFERMI">      0.00000000</i>
  </separator>
  <separator name="writing" >
   <i type="int" name="NWRITE">     2</i>
   <i type="logical" name="LWAVE"> F  </i>
   <i type="logical" name="LDOWNSAMPLE"> F  </i>
   <i type="logical" name="LCHARG"> F  </i>
   <i type="logical" name="LPARD"> F  </i>
   <i type="logical" name="LVTOT"> F  </i>
   <i type="logical" name="LVHAR"> F  </i>
   <i type="logical" name="LELF"> F  </i>
   <i type="logical" name="LOPTICS"> F  </i>
   <v name="STM">      0.00000000      0.00000000      0.00000000      0.00000000      0.00000000      0.00000000      0.00000000</v>
  </separator>
  <separator name="performance" >
   <i type="int" name="NPAR">     1</i>
   <i type="int" name="NSIM">     4</i>
   <i type="int" name="NBLK">    -1</i>
   <i type="logical" name="LPLANE"> T  </i>
   <i type="logical" name="LSCALAPACK"> T  </i>
   <i type="logical" name="LSCAAWARE"> F  </i>
   <i type="logical" name="LSCALU"> F  </i>
   <i type="logical" name="LASYNC"> F  </i>
   <i type="logical" name="LORBITALREAL"> F  </i>
  </separator>
  <separator name="miscellaneous" >
   <i type="int" name="IDIOT">     3</i>
   <i type="int" name="PHON_NSTRUCT">    -1</i>
   <i type="logical" name="LMUSIC"> F  </i>
   <v name="POMASS">     63.54600000     16.00000000     12.01100000     16.00000000     12.01100000     16.00000000     12.01100000     16.00000000     12.01100000     16.00000000     12.01100000     16.00000000</v>
   <v name="DARWINR">      0.00000000      0.00000000      0.00000000      0.00000000      0.00000000      0.00000000      0.00000000      0.00000000      0.00000000      0.00000000      0.00000000      0.00000000</v>
   <v name="DARWINV">      1.00000000      1.00000000      1.00000000      1.00000000      1.00000000      1.00000000      1.00000000      1.00000000      1.00000000      1.00000000      1.00000000      1.00000000</v>
   <i type="logical" name="LCORR"> T  </i>
  </separator>
  <i type="logical" name="GGA_COMPAT"> T  </i>
  <i type="logical" name="LBERRY"> F  </i>
  <i type="int" name="ICORELEVEL">     0</i>
  <i type="logical" name="LDAU"> F  </i>
  <i type="int" name="I_CONSTRAINED_M">     0</i>
  <separator name="electronic exchange-correlation" >
   <i type="string" name="GGA    ">RP</i>
   <i type="string" name="XC_C">1</i>
   <i type="int" name="VOSKOWN">     0</i>
   <i type="logical" name="LHFCALC"> F  </i>
   <i type="string" name="PRECFOCK"></i>
   <i type="logical" name="LSYMGRAD"> F  </i>
   <i type="logical" name="LHFONE"> F  </i>
   <i type="logical" name="LRHFCALC"> F  </i>
   <i type="logical" name="LTHOMAS"> F  </i>
   <i type="logical" name="LMODELHF"> F  </i>
   <i type="logical" name="LFOCKACE"> F  </i>
   <i name="ENCUT4O">     -1.00000000</i>
   <i type="int" name="EXXOEP">     0</i>
   <i type="int" name="FOURORBIT">     0</i>
   <i name="AEXX">      0.00000000</i>
   <i name="HFALPHA">      0.00000000</i>
   <i name="MCALPHA">      0.00000000</i>
   <i name="ALDAX">      1.00000000</i>
   <i name="AGGAX">      1.00000000</i>
   <i name="AMGGAX">      1.00000000</i>
   <i name="ALDAC">      1.00000000</i>
   <i name="AGGAC">      1.00000000</i>
   <i name="AMGGAC">      1.00000000</i>
   <i type="int" name="NKREDX">     1</i>
   <i type="int" name="NKREDY">     1</i>
   <i type="int" name="NKREDZ">     1</i>
   <i type="logical" name="SHIFTRED"> F  </i>
   <i type="logical" name="ODDONLY"> F  </i>
   <i type="logical" name="EVENONLY"> F  </i>
   <i type="int" name="LMAXFOCK">     0</i>
   <i type="int" name="NMAXFOCKAE">     0</i>
   <i type="logical" name="LFOCKAEDFT"> F  </i>
   <i name="HFSCREEN">      0.00000000</i>
   <i name="HFSCREENC">      0.00000000</i>
   <i type="int" name="NBANDSGWLOW">     0</i>
  </separator>
  <separator name="vdW DFT" >
   <i type="logical" name="LUSE_VDW"> F  </i>
   <i type="int" name="IVDW_NL">    -1</i>
   <i type="logical" name="LSPIN_VDW"> F  </i>
   <i name="ZAB_VDW">     -0.84910000</i>
   <i name="GAMMA_VDW">      1.39626340</i>
   <i name="ALPHA_VDW">      0.00000000</i>
   <i name="PARAM1">      0.12340000</i>
   <i name="PARAM2">      1.00000000</i>
   <i name="BPARAM">      6.30000000</i>
   <i name="CPARAM">      0.00930000</i>
  </separator>
  <separator name="model GW" >
   <i type="int" name="MODEL_GW">     0</i>
   <i name="MODEL_EPS0">     21.62811657</i>
   <i name="MODEL_ALPHA">      1.00000000</i>
  </separator>
  <separator name="linear response parameters" >
   <i type="logical" name="LEPSILON"> F  </i>
   <i type="logical" name="LRPA"> F  </i>
   <i type="logical" name="LNABLA"> F  </i>
   <i type="logical" name="LVEL"> F  </i>
   <i name="CSHIFT">      0.10000000</i>
   <i name="OMEGAMAX">     -1.00000000</i>
   <i name="DEG_THRESHOLD">      0.00200000</i>
   <i name="RTIME">     -0.10000000</i>
   <i name="WPLASMAI">      0.00000000</i>
   <v name="DFIELD">      0.00000000      0.00000000      0.00000000</v>
   <v name="WPLASMA">      0.00000000      0.00000000      0.00000000      0.00000000      0.00000000      0.00000000      0.00000000      0.00000000      0.00000000</v>
  </separator>
  <separator name="orbital magnetization" >
   <i type="logical" name="NUCIND"> F  </i>
   <v name="MAGPOS">      0.00000000      0.00000000      0.00000000</v>
   <i type="logical" name="LNICSALL"> T  </i>
   <i type="logical" name="ORBITALMAG"> F  </i>
   <i type="logical" name="LMAGBLOCH"> F  </i>
   <i type="logical" name="LCHIMAG"> F  </i>
   <i type="logical" name="LGAUGE"> T  </i>
   <i type="int" name="MAGATOM">     0</i>
   <v name="MAGDIPOL">      0.00000000      0.00000000      0.00000000</v>
   <v name="AVECCONST">      0.00000000      0.00000000      0.00000000</v>
  </separator>
  <separator name="response functions" >
   <i type="logical" name="LALL_IN_ONE"> F  </i>
   <i type="int" name="IALL_IN_ONE">    -1</i>
   <i type="int" name="NBANDS_WAVE">    -1</i>
   <i type="logical" name="LFINITE_TEMPERATURE"> F  </i>
   <i type="logical" name="LADDER"> F  </i>
   <i type="logical" name="LRPAFORCE"> F  </i>
   <i type="logical" name="LFXC"> F  </i>
   <i type="logical" name="LHARTREE"> T  </i>
   <i type="int" name="IBSE">     2</i>
   <v type="int" name="KPOINT">    -1     0     0     0</v>
   <i type="logical" name="LTCTC"> F  </i>
   <i type="logical" name="LTCTE"> F  </i>
   <i type="logical" name="LTETE"> F  </i>
   <i type="logical" name="LTRIPLET"> F  </i>
   <i type="logical" name="LFXCEPS"> F  </i>
   <i type="logical" name="LFXHEG"> F  </i>
   <i type="int" name="NATURALO">     2</i>
   <i type="logical" name="LHOLEGF"> F  </i>
   <i type="logical" name="L2ORDER"> F  </i>
   <i type="logical" name="LDMP1"> F  </i>
   <i type="logical" name="LMP2LT"> F  </i>
   <i type="logical" name="LSMP2LT"> F  </i>
   <i type="logical" name="LGWLF"> F  </i>
   <i name="ENCUTGW">     -1.60000002</i>
   <i name="ENCUTGWSOFT">     -1.60000002</i>
   <i name="ENCUTLF">     -1.00000000</i>
   <i type="logical" name="ESF_SPLINES"> F  </i>
   <i name="ESF_CONV">      0.01000000</i>
   <i type="int" name="ESF_NINTER">    15</i>
   <i type="int" name="LMAXMP2">    -1</i>
   <i name="SCISSOR">      0.00000000</i>
   <i type="int" name="NOMEGA">     0</i>
   <i type="int" name="NOMEGAR">     0</i>
   <i type="int" name="NBANDSGW">    -1</i>
   <i type="int" name="NBANDSO">    -1</i>
   <i type="int" name="NBANDSV">    -1</i>
   <i type="int" name="NELMGW">     1</i>
   <i type="int" name="NELMHF">     1</i>
   <i type="int" name="DIM">     3</i>
   <i type="int" name="IESPILON">     4</i>
   <i type="int" name="ANTIRES">     0</i>
   <i name="OMEGAMAX">    -30.00000000</i>
   <i name="OMEGAMIN">    -30.00000000</i>
   <i name="OMEGATL">   -200.00000000</i>
   <i type="int" name="OMEGAGRID">     0</i>
   <i name="CSHIFT">     -0.10000000</i>
   <i type="logical" name="LSELFENERGY"> F  </i>
   <i type="logical" name="LSPECTRAL"> F  </i>
   <i type="logical" name="LSPECTRALGW"> F  </i>
   <i type="logical" name="LSINGLES"> F  </i>
   <i type="logical" name="LFERMIGW"> F  </i>
   <i type="logical" name="ODDONLYGW"> F  </i>
   <i type="logical" name="EVENONLYGW"> F  </i>
   <i type="int" name="NKREDLFX">     1</i>
   <i type="int" name="NKREDLFY">     1</i>
   <i type="int" name="NKREDLFZ">     1</i>
   <i type="int" name="MAXMEM">  2800</i>
   <i type="int" name="TELESCOPE">     0</i>
   <i type="int" name="NTAUPAR">    -1</i>
   <i type="int" name="NOMEGAPAR">    -1</i>
   <i name="DAMP_NEWTON">      0.80000001</i>
   <i name="LAMBDA">      1.00000000</i>
  </separator>
  <separator name="External order field" >
   <i name="OFIELD_KAPPA">      0.00000000</i>
   <v name="OFIELD_K">      0.00000000      0.00000000      0.00000000</v>
   <i name="OFIELD_Q6_NEAR">      0.00000000</i>
   <i name="OFIELD_Q6_FAR">      0.00000000</i>
   <i name="OFIELD_A">      0.00000000</i>
  </separator>
  <separator name="optional k-points parameters" >
   <i type="int" name="KPOINTS_OPT_MODE">     1</i>
   <i type="logical" name="LKPOINTS_OPT"> F  </i>
  </separator>
 </parameters>
 <atominfo>
  <atoms>      48 </atoms>
  <types>      12 </types>
  <array name="atoms" >
   <dimension dim="1">ion</dimension>
   <field type="string">element</field>
   <field type="int">atomtype</field>
   <set>
    <rc><c>Cu</c><c>   1</c></rc>
    <rc><c>Cu</c><c>   1</c></rc>
    <rc><c>Cu</c><c>   1</c></rc>
    <rc><c>Cu</c><c>   1</c></rc>
    <rc><c>Cu</c><c>   1</c></rc>
    <rc><c>Cu</c><c>   1</c></rc>
    <rc><c>Cu</c><c>   1</c></rc>
    <rc><c>Cu</c><c>   1</c></rc>
    <rc><c>Cu</c><c>   1</c></rc>
    <rc><c>Cu</c><c>   1</c></rc>
    <rc><c>Cu</c><c>   1</c></rc>
    <rc><c>Cu</c><c>   1</c></rc>
    <rc><c>Cu</c><c>   1</c></rc>
    <rc><c>Cu</c><c>   1</c></rc>
    <rc><c>Cu</c><c>   1</c></rc>
    <rc><c>Cu</c><c>   1</c></rc>
    <rc><c>Cu</c><c>   1</c></rc>
    <rc><c>Cu</c><c>   1</c></rc>
    <rc><c>Cu</c><c>   1</c></rc>
    <rc><c>Cu</c><c>   1</c></rc>
    <rc><c>Cu</c><c>   1</c></rc>
    <rc><c>Cu</c><c>   1</c></rc>
    <rc><c>Cu</c><c>   1</c></rc>
    <rc><c>Cu</c><c>   1</c></rc>
    <rc><c>Cu</c><c>   1</c></rc>
    <rc><c>Cu</c><c>   1</c></rc>
    <rc><c>Cu</c><c>   1</c></rc>
    <rc><c>Cu</c><c>   1</c></rc>
    <rc><c>Cu</c><c>   1</c></rc>
    <rc><c>Cu</c><c>   1</c></rc>
    <rc><c>Cu</c><c>   1</c></rc>
    <rc><c>Cu</c><c>   1</c></rc>
    <rc><c>Cu</c><c>   1</c></rc>
    <rc><c>Cu</c><c>   1</c></rc>
    <rc><c>Cu</c><c>   1</c></rc>
    <rc><c>Cu</c><c>   1</c></rc>
    <rc><c>O </c><c>   2</c></rc>
    <rc><c>C </c><c>   3</c></rc>
    <rc><c>C </c><c>   3</c></rc>
    <rc><c>O </c><c>   4</c></rc>
    <rc><c>C </c><c>   5</c></rc>
    <rc><c>O </c><c>   6</c></rc>
    <rc><c>C </c><c>   7</c></rc>
    <rc><c>O </c><c>   8</c></rc>
    <rc><c>C </c><c>   9</c></rc>
    <rc><c>O </c><c>  10</c></rc>
    <rc><c>C </c><c>  11</c></rc>
    <rc><c>O </c><c>  12</c></rc>
   </set>
  </array>
  <array name="atomtypes" >
   <dimension dim="1">type</dimension>
   <field type="int">atomspertype</field>
   <field type="string">element</field>
   <field>mass</field>
   <field>valence</field>
   <field type="string">pseudopotential</field>
   <set>
    <rc><c>  36</c><c>Cu</c><c>     63.54600000</c><c>     11.00000000</c><c>  PAW_PBE Cu 22Jun2005                  </c></rc>
    <rc><c>   1</c><c>O </c><c>     16.00000000</c><c>      6.00000000</c><c>  PAW_PBE O 08Apr2002                   </c></rc>
    <rc><c>   2</c><c>C </c><c>     12.01100000</c><c>      4.00000000</c><c>  PAW_PBE C 08Apr2002                   </c></rc>
    <rc><c>   1</c><c>O </c><c>     16.00000000</c><c>      6.00000000</c><c>  PAW_PBE O 08Apr2002                   </c></rc>
    <rc><c>   1</c><c>C </c><c>     12.01100000</c><c>      4.00000000</c><c>  PAW_PBE C 08Apr2002                   </c></rc>
    <rc><c>   1</c><c>O </c><c>     16.00000000</c><c>      6.00000000</c><c>  PAW_PBE O 08Apr2002                   </c></rc>
    <rc><c>   1</c><c>C </c><c>     12.01100000</c><c>      4.00000000</c><c>  PAW_PBE C 08Apr2002                   </c></rc>
    <rc><c>   1</c><c>O </c><c>     16.00000000</c><c>      6.00000000</c><c>  PAW_PBE O 08Apr2002                   </c></rc>
    <rc><c>   1</c><c>C </c><c>     12.01100000</c><c>      4.00000000</c><c>  PAW_PBE C 08Apr2002                   </c></rc>
    <rc><c>   1</c><c>O </c><c>     16.00000000</c><c>      6.00000000</c><c>  PAW_PBE O 08Apr2002                   </c></rc>
    <rc><c>   1</c><c>C </c><c>     12.01100000</c><c>      4.00000000</c><c>  PAW_PBE C 08Apr2002                   </c></rc>
    <rc><c>   1</c><c>O </c><c>     16.00000000</c><c>      6.00000000</c><c>  PAW_PBE O 08Apr2002                   </c></rc>
   </set>
  </array>
 </atominfo>
 <structure name="initialpos" >
  <crystal>
   <varray name="basis" >
    <v>       7.66857304       0.00000000       0.00000000 </v>
    <v>       0.00000000       7.66857304       0.00000000 </v>
    <v>       0.00000000       0.00000000      29.42250000 </v>
   </varray>
   <i name="volume">   1730.24932528 </i>
   <varray name="rec_basis" >
    <v>       0.13040236       0.00000000       0.00000000 </v>
    <v>       0.00000000       0.13040236       0.00000000 </v>
    <v>       0.00000000       0.00000000       0.03398759 </v>
   </varray>
  </crystal>
  <varray name="positions" >
   <v>       0.16666667       0.16666667       0.40785113 </v>
   <v>       0.50000000       0.16666667       0.40785113 </v>
   <v>       0.83333333       0.16666667       0.40785113 </v>
   <v>       0.16666667       0.50000000       0.40785113 </v>
   <v>       0.50000000       0.50000000       0.40785113 </v>
   <v>       0.83333333       0.50000000       0.40785113 </v>
   <v>       0.16666667       0.83333333       0.40785113 </v>
   <v>       0.50000000       0.83333333       0.40785113 </v>
   <v>       0.83333333       0.83333333       0.40785113 </v>
   <v>       0.00000000       0.00000000       0.46928371 </v>
   <v>       0.33333333       0.00000000       0.46928371 </v>
   <v>       0.66666667       0.00000000       0.46928371 </v>
   <v>       0.00000000       0.33333333       0.46928371 </v>
   <v>       0.33333333       0.33333333       0.46928371 </v>
   <v>       0.66666667       0.33333333       0.46928371 </v>
   <v>       0.00000000       0.66666667       0.46928371 </v>
   <v>       0.33333333       0.66666667       0.46928371 </v>
   <v>       0.66666667       0.66666667       0.46928371 </v>
   <v>       0.16666667       0.16666667       0.53071629 </v>
   <v>       0.50000000       0.16666667       0.53071629 </v>
   <v>       0.83333333       0.16666667       0.53071629 </v>
   <v>       0.16666667       0.50000000       0.53071629 </v>
   <v>       0.50000000       0.50000000       0.53071629 </v>
   <v>       0.83333333       0.50000000       0.53071629 </v>
   <v>       0.16666667       0.83333333       0.53071629 </v>
   <v>       0.50000000       0.83333333       0.53071629 </v>
   <v>       0.83333333       0.83333333       0.53071629 </v>
   <v>       0.00000000       0.00000000       0.59214887 </v>
   <v>       0.33333333       0.00000000       0.59214887 </v>
   <v>       0.66666667       0.00000000       0.59214887 </v>
   <v>       0.00000000       0.33333333       0.59214887 </v>
   <v>       0.33333333       0.33333333       0.59214887 </v>
   <v>       0.66666667       0.33333333       0.59214887 </v>
   <v>       0.00000000       0.66666667       0.59214887 </v>
   <v>       0.33333333       0.66666667       0.59214887 </v>
   <v>       0.66666667       0.66666667       0.59214887 </v>
   <v>       0.16666667       0.23553157       0.68731413 </v>
   <v>       0.16666667       0.28443245       0.64992778 </v>
   <v>       0.16666667       0.38223422       0.64992778 </v>
   <v>       0.16666667       0.43113510       0.68731413 </v>
   <v>       0.16666667       0.83333333       0.73829552 </v>
   <v>       0.16666667       0.83333333       0.77772113 </v>
   <v>       0.50000000       0.16666667       0.73829552 </v>
   <v>       0.50000000       0.16666667       0.77772113 </v>
   <v>       0.50000000       0.50000000       0.73829552 </v>
   <v>       0.50000000       0.50000000       0.77772113 </v>
   <v>       0.50000000       0.83333333       0.73829552 </v>
   <v>       0.50000000       0.83333333       0.77772113 </v>
  </varray>
  <varray name="selective"  type="logical" >
   <v type="logical" >  F  F  F </v>
   <v type="logical" >  F  F  F </v>
   <v type="logical" >  F  F  F </v>
   <v type="logical" >  F  F  F </v>
   <v type="logical" >  F  F  F </v>
   <v type="logical" >  F  F  F </v>
   <v type="logical" >  F  F  F </v>
   <v type="logical" >  F  F  F </v>
   <v type="logical" >  F  F  F </v>
   <v type="logical" >  F  F  F </v>
   <v type="logical" >  F  F  F </v>
   <v type="logical" >  F  F  F </v>
   <v type="logical" >  F  F  F </v>
   <v type="logical" >  F  F  F </v>
   <v type="logical" >  F  F  F </v>
   <v type="logical" >  F  F  F </v>
   <v type="logical" >  F  F  F </v>
   <v type="logical" >  F  F  F </v>
   <v type="logical" >  T  T  T </v>
   <v type="logical" >  T  T  T </v>
   <v type="logical" >  T  T  T </v>
   <v type="logical" >  T  T  T </v>
   <v type="logical" >  T  T  T </v>
   <v type="logical" >  T  T  T </v>
   <v type="logical" >  T  T  T </v>
   <v type="logical" >  T  T  T </v>
   <v type="logical" >  T  T  T </v>
   <v type="logical" >  T  T  T </v>
   <v type="logical" >  T  T  T </v>
   <v type="logical" >  T  T  T </v>
   <v type="logical" >  T  T  T </v>
   <v type="logical" >  T  T  T </v>
   <v type="logical" >  T  T  T </v>
   <v type="logical" >  T  T  T </v>
   <v type="logical" >  T  T  T </v>
   <v type="logical" >  T  T  T </v>
   <v type="logical" >  T  T  T </v>
   <v type="logical" >  T  T  T </v>
   <v type="logical" >  T  T  T </v>
   <v type="logical" >  T  T  T </v>
   <v type="logical" >  T  T  T </v>
   <v type="logical" >  T  T  T </v>
   <v type="logical" >  T  T  T </v>
   <v type="logical" >  T  T  T </v>
   <v type="logical" >  T  T  T </v>
   <v type="logical" >  T  T  T </v>
   <v type="logical" >  T  T  T </v>
   <v type="logical" >  T  T  T </v>
  </varray>
  <nose>
   <v>      -3.00000000       0.00000000       0.00010000       0.00010000 </v>
  </nose>
 </structure>
 <calculation>
  <scstep>
   <time name="dav">    3.08    3.09</time>
   <time name="total">    3.15    3.15</time>
   <energy>
    <i name="alphaZ">    699.87540909 </i>
    <i name="ewald"> 308075.14517767 </i>
    <i name="hartreedc">-358512.44495943 </i>
    <i name="XCdc">   1858.12052742 </i>
    <i name="pawpsdc">  46977.15792769 </i>
    <i name="pawaedc"> -50763.60131760 </i>
    <i name="eentropy">     -0.07124478 </i>
    <i name="bandstr">   2794.44796273 </i>
    <i name="atom">  53514.87208113 </i>
    <i name="e_fr_energy">   4643.50156393 </i>
    <i name="e_wo_entrp">   4643.57280870 </i>
    <i name="e_0_energy">   4643.53718631 </i>
   </energy>
  </scstep>
  <scstep>
   <time name="dav">    2.99    2.99</time>
   <time name="total">    2.99    2.99</time>
   <energy>
    <i name="e_fr_energy">    779.38057730 </i>
    <i name="e_wo_entrp">    779.43562884 </i>
    <i name="e_0_energy">    779.40810307 </i>
   </energy>
  </scstep>
  <scstep>
   <time name="dav">    3.97    3.98</time>
   <time name="total">    3.97    3.98</time>
   <energy>
    <i name="e_fr_energy">     -7.95807660 </i>
    <i name="e_wo_entrp">     -7.87801985 </i>
    <i name="e_0_energy">     -7.91804823 </i>
   </energy>
  </scstep>
  <scstep>
   <time name="dav">    4.49    4.50</time>
   <time name="total">    4.49    4.50</time>
   <energy>
    <i name="e_fr_energy">   -181.55551107 </i>
    <i name="e_wo_entrp">   -181.45538284 </i>
    <i name="e_0_energy">   -181.50544696 </i>
   </energy>
  </scstep>
  <scstep>
   <time name="dav">    4.38    4.39</time>
   <time name="total">    4.60    4.61</time>
   <energy>
    <i name="e_fr_energy">   -197.17413563 </i>
    <i name="e_wo_entrp">   -197.02419705 </i>
    <i name="e_0_energy">   -197.09916634 </i>
   </energy>
  </scstep>
  <scstep>
   <time name="dav">    3.65    3.66</time>
   <time name="total">    3.91    3.92</time>
   <energy>
    <i name="e_fr_energy">   -189.29712614 </i>
    <i name="e_wo_entrp">   -189.20544918 </i>
    <i name="e_0_energy">   -189.25128766 </i>
   </energy>
  </scstep>
  <scstep>
   <time name="dav">    3.86    3.87</time>
   <time name="total">    4.12    4.13</time>
   <energy>
    <i name="e_fr_energy">   -168.68064530 </i>
    <i name="e_wo_entrp">   -168.43571999 </i>
    <i name="e_0_energy">   -168.55818264 </i>
   </energy>
  </scstep>
  <scstep>
   <time name="dav">    4.49    4.50</time>
   <time name="total">    4.75    4.76</time>
   <energy>
    <i name="e_fr_energy">   -151.34603373 </i>
    <i name="e_wo_entrp">   -151.29530833 </i>
    <i name="e_0_energy">   -151.32067103 </i>
   </energy>
  </scstep>
  <scstep>
   <time name="dav">    4.33    4.34</time>
   <time name="total">    4.59    4.60</time>
   <energy>
    <i name="e_fr_energy">   -145.63338506 </i>
    <i name="e_wo_entrp">   -145.57874246 </i>
    <i name="e_0_energy">   -145.60606376 </i>
   </energy>
  </scstep>
  <scstep>
   <time name="dav">    3.81    3.82</time>
   <time name="total">    4.07    4.08</time>
   <energy>
    <i name="e_fr_energy">   -146.01750739 </i>
    <i name="e_wo_entrp">   -145.95369161 </i>
    <i name="e_0_energy">   -145.98559950 </i>
   </energy>
  </scstep>
  <scstep>
   <time name="dav">    3.34    3.35</time>
   <time name="total">    3.60    3.61</time>
   <energy>
    <i name="e_fr_energy">   -146.21078423 </i>
    <i name="e_wo_entrp">   -146.15400620 </i>
    <i name="e_0_energy">   -146.18239522 </i>
   </energy>
  </scstep>
  <scstep>
   <time name="dav">    4.03    4.04</time>
   <time name="total">    4.29    4.30</time>
   <energy>
    <i name="e_fr_energy">   -145.96916669 </i>
    <i name="e_wo_entrp">   -145.91379214 </i>
    <i name="e_0_energy">   -145.94147941 </i>
   </energy>
  </scstep>
  <scstep>
   <time name="dav">    4.71    4.72</time>
   <time name="total">    4.97    4.98</time>
   <energy>
    <i name="e_fr_energy">   -145.86494915 </i>
    <i name="e_wo_entrp">   -145.80610134 </i>
    <i name="e_0_energy">   -145.83552525 </i>
   </energy>
  </scstep>
  <scstep>
   <time name="dav">    4.09    4.10</time>
   <time name="total">    4.35    4.36</time>
   <energy>
    <i name="e_fr_energy">   -145.82242409 </i>
    <i name="e_wo_entrp">   -145.76286534 </i>
    <i name="e_0_energy">   -145.79264472 </i>
   </energy>
  </scstep>
  <scstep>
   <time name="dav">    3.56    3.57</time>
   <time name="total">    3.82    3.83</time>
   <energy>
    <i name="e_fr_energy">   -145.80047531 </i>
    <i name="e_wo_entrp">   -145.73958379 </i>
    <i name="e_0_energy">   -145.77002955 </i>
   </energy>
  </scstep>
  <scstep>
   <time name="dav">    3.60    3.61</time>
   <time name="total">    3.87    3.87</time>
   <energy>
    <i name="e_fr_energy">   -145.79526946 </i>
    <i name="e_wo_entrp">   -145.73367484 </i>
    <i name="e_0_energy">   -145.76447215 </i>
   </energy>
  </scstep>
  <scstep>
   <time name="dav">    3.58    3.58</time>
   <time name="total">    3.84    3.85</time>
   <energy>
    <i name="e_fr_energy">   -145.79001169 </i>
    <i name="e_wo_entrp">   -145.72914910 </i>
    <i name="e_0_energy">   -145.75958040 </i>
   </energy>
  </scstep>
  <scstep>
   <time name="dav">    3.67    3.68</time>
   <time name="total">    3.93    3.94</time>
   <energy>
    <i name="e_fr_energy">   -145.78619581 </i>
    <i name="e_wo_entrp">   -145.72610761 </i>
    <i name="e_0_energy">   -145.75615171 </i>
   </energy>
  </scstep>
  <scstep>
   <time name="dav">    3.92    3.93</time>
   <time name="total">    4.18    4.19</time>
   <energy>
    <i name="e_fr_energy">   -145.78443960 </i>
    <i name="e_wo_entrp">   -145.72454552 </i>
    <i name="e_0_energy">   -145.75449256 </i>
   </energy>
  </scstep>
  <scstep>
   <time name="dav">    4.16    4.17</time>
   <time name="total">    4.43    4.44</time>
   <energy>
    <i name="e_fr_energy">   -145.78169420 </i>
    <i name="e_wo_entrp">   -145.72169416 </i>
    <i name="e_0_energy">   -145.75169418 </i>
   </energy>
  </scstep>
  <scstep>
   <time name="dav">    4.32    4.33</time>
   <time name="total">    4.58    4.59</time>
   <energy>
    <i name="e_fr_energy">   -145.78090768 </i>
    <i name="e_wo_entrp">   -145.72091092 </i>
    <i name="e_0_energy">   -145.75090930 </i>
   </energy>
  </scstep>
  <scstep>
   <time name="dav">    4.28    4.29</time>
   <time name="total">    4.54    4.55</time>
   <energy>
    <i name="e_fr_energy">   -145.78058900 </i>
    <i name="e_wo_entrp">   -145.72061561 </i>
    <i name="e_0_energy">   -145.75060230 </i>
   </energy>
  </scstep>
  <scstep>
   <time name="dav">    4.17    4.18</time>
   <time name="total">    4.43    4.44</time>
   <energy>
    <i name="e_fr_energy">   -145.78078586 </i>
    <i name="e_wo_entrp">   -145.72083751 </i>
    <i name="e_0_energy">   -145.75081168 </i>
   </energy>
  </scstep>
  <scstep>
   <time name="dav">    3.91    3.92</time>
   <time name="total">    4.18    4.19</time>
   <energy>
    <i name="e_fr_energy">   -145.78088301 </i>
    <i name="e_wo_entrp">   -145.72092180 </i>
    <i name="e_0_energy">   -145.75090240 </i>
   </energy>
  </scstep>
  <scstep>
   <time name="dav">    4.21    4.22</time>
   <time name="total">    4.47    4.48</time>
   <energy>
    <i name="e_fr_energy">   -145.78107445 </i>
    <i name="e_wo_entrp">   -145.72113859 </i>
    <i name="e_0_energy">   -145.75110652 </i>
   </energy>
  </scstep>
  <scstep>
   <time name="dav">    3.70    3.70</time>
   <time name="total">    3.96    3.97</time>
   <energy>
    <i name="e_fr_energy">   -145.78117645 </i>
    <i name="e_wo_entrp">   -145.72124786 </i>
    <i name="e_0_energy">   -145.75121215 </i>
   </energy>
  </scstep>
  <scstep>
   <time name="dav">    3.33    3.33</time>
   <time name="total">    3.60    3.61</time>
   <energy>
    <i name="e_fr_energy">   -145.78126390 </i>
    <i name="e_wo_entrp">   -145.72134118 </i>
    <i name="e_0_energy">   -145.75130254 </i>
   </energy>
  </scstep>
  <scstep>
   <time name="dav">    3.38    3.38</time>
   <time name="total">    3.65    3.66</time>
   <energy>
    <i name="e_fr_energy">   -145.78140168 </i>
    <i name="e_wo_entrp">   -145.72148325 </i>
    <i name="e_0_energy">   -145.75144247 </i>
   </energy>
  </scstep>
  <scstep>
   <time name="dav">    2.55    2.55</time>
   <time name="total">    2.82    2.82</time>
   <energy>
    <i name="e_fr_energy">   -145.78144451 </i>
    <i name="e_wo_entrp">   -145.72152504 </i>
    <i name="e_0_energy">   -145.75148478 </i>
   </energy>
  </scstep>
  <scstep>
   <time name="dav">    2.46    2.46</time>
   <time name="total">    2.73    2.74</time>
   <energy>
    <i name="e_fr_energy">   -145.78148654 </i>
    <i name="e_wo_entrp">   -145.72156341 </i>
    <i name="e_0_energy">   -145.75152498 </i>
   </energy>
  </scstep>
  <scstep>
   <time name="dav">    2.34    2.34</time>
   <time name="total">    2.61    2.61</time>
   <energy>
    <i name="e_fr_energy">   -145.78151435 </i>
    <i name="e_wo_entrp">   -145.72159036 </i>
    <i name="e_0_energy">   -145.75155236 </i>
   </energy>
  </scstep>
  <scstep>
   <time name="dav">    2.34    2.34</time>
   <time name="total">    2.61    2.61</time>
   <energy>
    <i name="e_fr_energy">   -145.78152709 </i>
    <i name="e_wo_entrp">   -145.72160288 </i>
    <i name="e_0_energy">   -145.75156499 </i>
   </energy>
  </scstep>
  <scstep>
   <time name="dav">    2.23    2.24</time>
   <time name="total">    2.51    2.51</time>
   <energy>
    <i name="e_fr_energy">   -145.78153388 </i>
    <i name="e_wo_entrp">   -145.72160915 </i>
    <i name="e_0_energy">   -145.75157152 </i>
   </energy>
  </scstep>
  <scstep>
   <time name="dav">    2.20    2.20</time>
   <time name="total">    2.47    2.48</time>
   <energy>
    <i name="e_fr_energy">   -145.78153771 </i>
    <i name="e_wo_entrp">   -145.72161276 </i>
    <i name="e_0_energy">   -145.75157523 </i>
   </energy>
  </scstep>
  <scstep>
   <time name="dav">    2.14    2.15</time>
   <time name="total">    2.42    2.43</time>
   <energy>
    <i name="e_fr_energy">   -145.78153987 </i>
    <i name="e_wo_entrp">   -145.72161504 </i>
    <i name="e_0_energy">   -145.75157745 </i>
   </energy>
  </scstep>
  <scstep>
   <time name="dav">    2.09    2.09</time>
   <time name="total">    2.13    2.14</time>
   <energy>
    <i name="alphaZ">    699.87540909 </i>
    <i name="ewald"> 308075.14517767 </i>
    <i name="hartreedc">-358183.17908308 </i>
    <i name="XCdc">   1833.89028770 </i>
    <i name="pawpsdc">  53872.69882128 </i>
    <i name="pawaedc"> -57732.38402682 </i>
    <i name="eentropy">     -0.05992460 </i>
    <i name="bandstr">  -2226.64028321 </i>
    <i name="atom">  53514.87208113 </i>
    <i name="e_fr_energy">   -145.78154084 </i>
    <i name="e_wo_entrp">   -145.72161624 </i>
    <i name="e_0_energy">   -145.75157854 </i>
   </energy>
  </scstep>
  <structure>
   <crystal>
    <varray name="basis" >
     <v>       7.66857304       0.00000000       0.00000000 </v>
     <v>       0.00000000       7.66857304       0.00000000 </v>
     <v>       0.00000000       0.00000000      29.42250000 </v>
    </varray>
    <i name="volume">   1730.24932528 </i>
    <varray name="rec_basis" >
     <v>       0.13040236       0.00000000       0.00000000 </v>
     <v>       0.00000000       0.13040236       0.00000000 </v>
     <v>       0.00000000       0.00000000       0.03398759 </v>
    </varray>
   </crystal>
   <varray name="positions" >
    <v>       0.16666667       0.16666667       0.40785113 </v>
    <v>       0.50000000       0.16666667       0.40785113 </v>
    <v>       0.83333333       0.16666667       0.40785113 </v>
    <v>       0.16666667       0.50000000       0.40785113 </v>
    <v>       0.50000000       0.50000000       0.40785113 </v>
    <v>       0.83333333       0.50000000       0.40785113 </v>
    <v>       0.16666667       0.83333333       0.40785113 </v>
    <v>       0.50000000       0.83333333       0.40785113 </v>
    <v>       0.83333333       0.83333333       0.40785113 </v>
    <v>       0.00000000       0.00000000       0.46928371 </v>
    <v>       0.33333333       0.00000000       0.46928371 </v>
    <v>       0.66666667       0.00000000       0.46928371 </v>
    <v>       0.00000000       0.33333333       0.46928371 </v>
    <v>       0.33333333       0.33333333       0.46928371 </v>
    <v>       0.66666667       0.33333333       0.46928371 </v>
    <v>       0.00000000       0.66666667       0.46928371 </v>
    <v>       0.33333333       0.66666667       0.46928371 </v>
    <v>       0.66666667       0.66666667       0.46928371 </v>
    <v>       0.16666667       0.16666667       0.53071629 </v>
    <v>       0.50000000       0.16666667       0.53071629 </v>
    <v>       0.83333333       0.16666667       0.53071629 </v>
    <v>       0.16666667       0.50000000       0.53071629 </v>
    <v>       0.50000000       0.50000000       0.53071629 </v>
    <v>       0.83333333       0.50000000       0.53071629 </v>
    <v>       0.16666667       0.83333333       0.53071629 </v>
    <v>       0.50000000       0.83333333       0.53071629 </v>
    <v>       0.83333333       0.83333333       0.53071629 </v>
    <v>       0.00000000       0.00000000       0.59214887 </v>
    <v>       0.33333333       0.00000000       0.59214887 </v>
    <v>       0.66666667       0.00000000       0.59214887 </v>
    <v>       0.00000000       0.33333333       0.59214887 </v>
    <v>       0.33333333       0.33333333       0.59214887 </v>
    <v>       0.66666667       0.33333333       0.59214887 </v>
    <v>       0.00000000       0.66666667       0.59214887 </v>
    <v>       0.33333333       0.66666667       0.59214887 </v>
    <v>       0.66666667       0.66666667       0.59214887 </v>
    <v>       0.16666667       0.23553157       0.68731413 </v>
    <v>       0.16666667       0.28443245       0.64992778 </v>
    <v>       0.16666667       0.38223422       0.64992778 </v>
    <v>       0.16666667       0.43113510       0.68731413 </v>
    <v>       0.16666667       0.83333333       0.73829552 </v>
    <v>       0.16666667       0.83333333       0.77772113 </v>
    <v>       0.50000000       0.16666667       0.73829552 </v>
    <v>       0.50000000       0.16666667       0.77772113 </v>
    <v>       0.50000000       0.50000000       0.73829552 </v>
    <v>       0.50000000       0.50000000       0.77772113 </v>
    <v>       0.50000000       0.83333333       0.73829552 </v>
    <v>       0.50000000       0.83333333       0.77772113 </v>
   </varray>
  </structure>
  <varray name="forces" >
   <v>       0.00923880      -0.00019872      -0.09197167 </v>
   <v>      -0.00786682       0.04659150      -0.12231069 </v>
   <v>      -0.00086627       0.04240240      -0.11913452 </v>
   <v>       0.01342699       0.00434720      -0.09135774 </v>
   <v>      -0.00786622      -0.03818425      -0.12195549 </v>
   <v>      -0.00505385      -0.03820147      -0.11864521 </v>
   <v>       0.00926735      -0.00500304      -0.09299827 </v>
   <v>      -0.01575050      -0.00921734      -0.12180020 </v>
   <v>       0.00677307      -0.00501663      -0.11981452 </v>
   <v>       0.02276396       0.00559529      -0.25565811 </v>
   <v>      -0.02915137       0.00441113      -0.25497720 </v>
   <v>       0.00690995       0.00179723      -0.20024804 </v>
   <v>      -0.00687813      -0.00506616      -0.20735505 </v>
   <v>       0.00285795      -0.00403308      -0.21019999 </v>
   <v>       0.00428109      -0.00403424      -0.31191364 </v>
   <v>       0.02276794      -0.00136845      -0.25023307 </v>
   <v>      -0.02811743      -0.00120127      -0.25343791 </v>
   <v>       0.00589338       0.00138747      -0.19862623 </v>
   <v>       0.00660497      -0.03506461      -0.03003509 </v>
   <v>      -0.03962114       0.07787253       0.23334110 </v>
   <v>       0.03323132       0.07789533       0.23464784 </v>
   <v>       0.00762868       0.03821779      -0.02839213 </v>
   <v>      -0.03961032      -0.07366518       0.23891178 </v>
   <v>       0.03224010      -0.07479757       0.23638799 </v>
   <v>       0.00619037      -0.00395462       0.18610931 </v>
   <v>      -0.04596795      -0.00494239       0.28373509 </v>
   <v>       0.04066835      -0.00376384       0.28377723 </v>
   <v>       0.03307976      -0.02535724       0.17422661 </v>
   <v>      -0.05089747      -0.02328425       0.16303144 </v>
   <v>       0.01829965      -0.00961154       0.12049973 </v>
   <v>      -0.49530036      -0.00947476      -0.10646179 </v>
   <v>       0.48842580      -0.00493821      -0.11433395 </v>
   <v>       0.01205726      -0.00506130       0.01897381 </v>
   <v>       0.03307045       0.03385753       0.17457457 </v>
   <v>      -0.04669498       0.02761796       0.16366049 </v>
   <v>       0.01409687       0.01385718       0.12108124 </v>
   <v>      -0.15193626     -13.69174836      17.76814597 </v>
   <v>       0.01385579    -218.30635265     -17.43148726 </v>
   <v>       0.01869419     218.30959861     -17.43174714 </v>
   <v>      -0.14697327      13.69508164      17.76713590 </v>
   <v>      -0.63401716       0.00311352       1.28658227 </v>
   <v>      -0.83059632       0.00162254      -1.28216438 </v>
   <v>       0.21511825      -0.02196756       1.37527667 </v>
   <v>      -0.05019355       0.01298746      -1.32519749 </v>
   <v>       0.21504431       0.01677930       1.38008171 </v>
   <v>      -0.05012762      -0.01450785      -1.32698166 </v>
   <v>       0.57642588       0.00437239       1.44363174 </v>
   <v>       0.81457449       0.00061060      -1.43437405 </v>
  </varray>
  <varray name="stress" >
   <v>       5.19144379       0.01791313       0.20425116 </v>
   <v>       0.01791325     181.62610808      -0.00220459 </v>
   <v>       0.20425096      -0.00220469      38.68973200 </v>
  </varray>
  <energy>
   <i name="e_fr_energy">   -145.78154084 </i>
   <i name="e_wo_entrp">   -145.72161624 </i>
   <i name="e_0_energy">   -145.75157854 </i>
  </energy>
  <time name="totalsc">  140.07  140.37</time>
 </calculation>
 <calculation>
  <scstep>
   <time name="dav">    3.83    3.84</time>
   <time name="total">    4.09    4.09</time>
   <energy>
    <i name="alphaZ">    699.87540909 </i>
    <i name="ewald"> 306577.90209080 </i>
    <i name="hartreedc">-356642.68876810 </i>
    <i name="XCdc">   1831.83853304 </i>
    <i name="pawpsdc">  53872.69450358 </i>
    <i name="pawaedc"> -57732.38030129 </i>
    <i name="eentropy">     -0.06842432 </i>
    <i name="bandstr">  -2230.02640839 </i>
    <i name="atom">  53514.87208113 </i>
    <i name="e_fr_energy">   -107.98128447 </i>
    <i name="e_wo_entrp">   -107.91286015 </i>
    <i name="e_0_energy">   -107.94707231 </i>
   </energy>
  </scstep>
  <scstep>
   <time name="dav">    4.49    4.50</time>
   <time name="total">    4.74    4.75</time>
   <energy>
    <i name="e_fr_energy">   -200.35806746 </i>
    <i name="e_wo_entrp">   -200.27710391 </i>
    <i name="e_0_energy">   -200.31758568 </i>
   </energy>
  </scstep>
  <scstep>
   <time name="dav">    4.05    4.05</time>
   <time name="total">    4.31    4.32</time>
   <energy>
    <i name="e_fr_energy">   -185.15496648 </i>
    <i name="e_wo_entrp">   -185.09751560 </i>
    <i name="e_0_energy">   -185.12624104 </i>
   </energy>
  </scstep>
  <scstep>
   <time name="dav">    4.22    4.23</time>
   <time name="total">    4.48    4.49</time>
   <energy>
    <i name="e_fr_energy">   -178.29856177 </i>
    <i name="e_wo_entrp">   -178.22811320 </i>
    <i name="e_0_energy">   -178.26333749 </i>
   </energy>
  </scstep>
  <scstep>
   <time name="dav">    4.16    4.16</time>
   <time name="total">    4.41    4.42</time>
   <energy>
    <i name="e_fr_energy">   -214.82611093 </i>
    <i name="e_wo_entrp">   -214.74535094 </i>
    <i name="e_0_energy">   -214.78573093 </i>
   </energy>
  </scstep>
  <scstep>
   <time name="dav">    3.97    3.98</time>
   <time name="total">    4.23    4.24</time>
   <energy>
    <i name="e_fr_energy">   -193.89355365 </i>
    <i name="e_wo_entrp">   -193.81325273 </i>
    <i name="e_0_energy">   -193.85340319 </i>
   </energy>
  </scstep>
  <scstep>
   <time name="dav">    4.32    4.33</time>
   <time name="total">    4.58    4.59</time>
   <energy>
    <i name="e_fr_energy">   -181.68586424 </i>
    <i name="e_wo_entrp">   -181.62134723 </i>
    <i name="e_0_energy">   -181.65360573 </i>
   </energy>
  </scstep>
  <scstep>
   <time name="dav">    4.16    4.17</time>
   <time name="total">    4.42    4.43</time>
   <energy>
    <i name="e_fr_energy">   -174.01119844 </i>
    <i name="e_wo_entrp">   -173.87605817 </i>
    <i name="e_0_energy">   -173.94362831 </i>
   </energy>
  </scstep>
  <scstep>
   <time name="dav">    4.04    4.04</time>
   <time name="total">    4.30    4.31</time>
   <energy>
    <i name="e_fr_energy">   -174.18636909 </i>
    <i name="e_wo_entrp">   -174.02076438 </i>
    <i name="e_0_energy">   -174.10356673 </i>
   </energy>
  </scstep>
  <scstep>
   <time name="dav">    4.36    4.37</time>
   <time name="total">    4.62    4.63</time>
   <energy>
    <i name="e_fr_energy">   -176.04122428 </i>
    <i name="e_wo_entrp">   -175.96759004 </i>
    <i name="e_0_energy">   -176.00440716 </i>
   </energy>
  </scstep>
  <scstep>
   <time name="dav">    4.60    4.61</time>
   <time name="total">    4.86    4.87</time>
   <energy>
    <i name="e_fr_energy">   -173.99985318 </i>
    <i name="e_wo_entrp">   -173.84108313 </i>
    <i name="e_0_energy">   -173.92046816 </i>
   </energy>
  </scstep>
  <scstep>
   <time name="dav">    4.01    4.02</time>
   <time name="total">    4.28    4.29</time>
   <energy>
    <i name="e_fr_energy">   -174.02050043 </i>
    <i name="e_wo_entrp">   -173.90266606 </i>
    <i name="e_0_energy">   -173.96158325 </i>
   </energy>
  </scstep>
  <scstep>
   <time name="dav">    4.76    4.77</time>
   <time name="total">    5.02    5.03</time>
   <energy>
    <i name="e_fr_energy">   -174.06289603 </i>
    <i name="e_wo_entrp">   -173.96122144 </i>
    <i name="e_0_energy">   -174.01205874 </i>
   </energy>
  </scstep>
  <scstep>
   <time name="dav">    4.14    4.14</time>
   <time name="total">    4.40    4.41</time>
   <energy>
    <i name="e_fr_energy">   -173.97276299 </i>
    <i name="e_wo_entrp">   -173.85224371 </i>
    <i name="e_0_energy">   -173.91250335 </i>
   </energy>
  </scstep>
  <scstep>
   <time name="dav">    4.09    4.10</time>
   <time name="total">    4.36    4.37</time>
   <energy>
    <i name="e_fr_energy">   -173.87760335 </i>
    <i name="e_wo_entrp">   -173.72208764 </i>
    <i name="e_0_energy">   -173.79984550 </i>
   </energy>
  </scstep>
  <scstep>
   <time name="dav">    3.92    3.93</time>
   <time name="total">    4.18    4.19</time>
   <energy>
    <i name="e_fr_energy">   -173.86629435 </i>
    <i name="e_wo_entrp">   -173.70323784 </i>
    <i name="e_0_energy">   -173.78476609 </i>
   </energy>
  </scstep>
  <scstep>
   <time name="dav">    4.42    4.43</time>
   <time name="total">    4.69    4.69</time>
   <energy>
    <i name="e_fr_energy">   -173.87172778 </i>
    <i name="e_wo_entrp">   -173.71020708 </i>
    <i name="e_0_energy">   -173.79096743 </i>
   </energy>
  </scstep>
  <scstep>
   <time name="dav">    4.45    4.46</time>
   <time name="total">    4.72    4.73</time>
   <energy>
    <i name="e_fr_energy">   -173.87647157 </i>
    <i name="e_wo_entrp">   -173.71742205 </i>
    <i name="e_0_energy">   -173.79694681 </i>
   </energy>
  </scstep>
  <scstep>
   <time name="dav">    4.19    4.20</time>
   <time name="total">    4.46    4.47</time>
   <energy>
    <i name="e_fr_energy">   -173.87289159 </i>
    <i name="e_wo_entrp">   -173.70217485 </i>
    <i name="e_0_energy">   -173.78753322 </i>
   </energy>
  </scstep>
  <scstep>
   <time name="dav">    4.03    4.04</time>
   <time name="total">    4.29    4.31</time>
   <energy>
    <i name="e_fr_energy">   -173.88692237 </i>
    <i name="e_wo_entrp">   -173.73113582 </i>
    <i name="e_0_energy">   -173.80902909 </i>
   </energy>
  </scstep>
  <scstep>
   <time name="dav">    3.75    3.76</time>
   <time name="total">    4.02    4.03</time>
   <energy>
    <i name="e_fr_energy">   -173.87442005 </i>
    <i name="e_wo_entrp">   -173.70846759 </i>
    <i name="e_0_energy">   -173.79144382 </i>
   </energy>
  </scstep>
  <scstep>
   <time name="dav">    4.13    4.14</time>
   <time name="total">    4.40    4.41</time>
   <energy>
    <i name="e_fr_energy">   -173.87649838 </i>
    <i name="e_wo_entrp">   -173.70475628 </i>
    <i name="e_0_energy">   -173.79062733 </i>
   </energy>
  </scstep>
  <scstep>
   <time name="dav">    3.95    3.95</time>
   <time name="total">    4.22    4.23</time>
   <energy>
    <i name="e_fr_energy">   -173.87480539 </i>
    <i name="e_wo_entrp">   -173.70550735 </i>
    <i name="e_0_energy">   -173.79015637 </i>
   </energy>
  </scstep>
  <scstep>
   <time name="dav">    4.15    4.16</time>
   <time name="total">    4.42    4.43</time>
   <energy>
    <i name="e_fr_energy">   -173.87630521 </i>
    <i name="e_wo_entrp">   -173.70576406 </i>
    <i name="e_0_energy">   -173.79103464 </i>
   </energy>
  </scstep>
  <scstep>
   <time name="dav">    4.37    4.38</time>
   <time name="total">    4.65    4.66</time>
   <energy>
    <i name="e_fr_energy">   -173.87641456 </i>
    <i name="e_wo_entrp">   -173.70997377 </i>
    <i name="e_0_energy">   -173.79319416 </i>
   </energy>
  </scstep>
  <scstep>
   <time name="dav">    3.90    3.91</time>
   <time name="total">    4.17    4.18</time>
   <energy>
    <i name="e_fr_energy">   -173.87662671 </i>
    <i name="e_wo_entrp">   -173.70876821 </i>
    <i name="e_0_energy">   -173.79269746 </i>
   </energy>
  </scstep>
  <scstep>
   <time name="dav">    3.70    3.70</time>
   <time name="total">    3.97    3.98</time>
   <energy>
    <i name="e_fr_energy">   -173.87681174 </i>
    <i name="e_wo_entrp">   -173.70861838 </i>
    <i name="e_0_energy">   -173.79271506 </i>
   </energy>
  </scstep>
  <scstep>
   <time name="dav">    3.62    3.63</time>
   <time name="total">    3.90    3.91</time>
   <energy>
    <i name="e_fr_energy">   -173.87700945 </i>
    <i name="e_wo_entrp">   -173.70865044 </i>
    <i name="e_0_energy">   -173.79282995 </i>
   </energy>
  </scstep>
  <scstep>
   <time name="dav">    3.60    3.61</time>
   <time name="total">    3.88    3.89</time>
   <energy>
    <i name="e_fr_energy">   -173.87730105 </i>
    <i name="e_wo_entrp">   -173.71020803 </i>
    <i name="e_0_energy">   -173.79375454 </i>
   </energy>
  </scstep>
  <scstep>
   <time name="dav">    3.40    3.41</time>
   <time name="total">    3.68    3.69</time>
   <energy>
    <i name="e_fr_energy">   -173.87736516 </i>
    <i name="e_wo_entrp">   -173.70964203 </i>
    <i name="e_0_energy">   -173.79350360 </i>
   </energy>
  </scstep>
  <scstep>
   <time name="dav">    2.69    2.70</time>
   <time name="total">    2.97    2.98</time>
   <energy>
    <i name="e_fr_energy">   -173.87744374 </i>
    <i name="e_wo_entrp">   -173.70976142 </i>
    <i name="e_0_energy">   -173.79360258 </i>
   </energy>
  </scstep>
  <scstep>
   <time name="dav">    2.61    2.62</time>
   <time name="total">    2.89    2.90</time>
   <energy>
    <i name="e_fr_energy">   -173.87749505 </i>
    <i name="e_wo_entrp">   -173.70956863 </i>
    <i name="e_0_energy">   -173.79353184 </i>
   </energy>
  </scstep>
  <scstep>
   <time name="dav">    2.69    2.69</time>
   <time name="total">    2.97    2.98</time>
   <energy>
    <i name="e_fr_energy">   -173.87754012 </i>
    <i name="e_wo_entrp">   -173.70939910 </i>
    <i name="e_0_energy">   -173.79346961 </i>
   </energy>
  </scstep>
  <scstep>
   <time name="dav">    2.32    2.33</time>
   <time name="total">    2.61    2.61</time>
   <energy>
    <i name="e_fr_energy">   -173.87755107 </i>
    <i name="e_wo_entrp">   -173.70959233 </i>
    <i name="e_0_energy">   -173.79357170 </i>
   </energy>
  </scstep>
  <scstep>
   <time name="dav">    2.25    2.26</time>
   <time name="total">    2.54    2.54</time>
   <energy>
    <i name="e_fr_energy">   -173.87756126 </i>
    <i name="e_wo_entrp">   -173.70970957 </i>
    <i name="e_0_energy">   -173.79363541 </i>
   </energy>
  </scstep>
  <scstep>
   <time name="dav">    2.26    2.26</time>
   <time name="total">    2.55    2.55</time>
   <energy>
    <i name="e_fr_energy">   -173.87756434 </i>
    <i name="e_wo_entrp">   -173.70954181 </i>
    <i name="e_0_energy">   -173.79355307 </i>
   </energy>
  </scstep>
  <scstep>
   <time name="dav">    2.16    2.17</time>
   <time name="total">    2.45    2.45</time>
   <energy>
    <i name="e_fr_energy">   -173.87756793 </i>
    <i name="e_wo_entrp">   -173.70961240 </i>
    <i name="e_0_energy">   -173.79359017 </i>
   </energy>
  </scstep>
  <scstep>
   <time name="dav">    2.21    2.21</time>
   <time name="total">    2.49    2.50</time>
   <energy>
    <i name="e_fr_energy">   -173.87756984 </i>
    <i name="e_wo_entrp">   -173.70963533 </i>
    <i name="e_0_energy">   -173.79360258 </i>
   </energy>
  </scstep>
  <scstep>
   <time name="dav">    2.03    2.03</time>
   <time name="total">    2.32    2.33</time>
   <energy>
    <i name="e_fr_energy">   -173.87757086 </i>
    <i name="e_wo_entrp">   -173.70959112 </i>
    <i name="e_0_energy">   -173.79358099 </i>
   </energy>
  </scstep>
  <scstep>
   <time name="dav">    2.09    2.10</time>
   <time name="total">    2.39    2.39</time>
   <energy>
    <i name="e_fr_energy">   -173.87757219 </i>
    <i name="e_wo_entrp">   -173.70957725 </i>
    <i name="e_0_energy">   -173.79357472 </i>
   </energy>
  </scstep>
  <scstep>
   <time name="dav">    2.03    2.03</time>
   <time name="total">    2.07    2.08</time>
   <energy>
    <i name="alphaZ">    699.87540909 </i>
    <i name="ewald"> 306577.90209080 </i>
    <i name="hartreedc">-356488.19093726 </i>
    <i name="XCdc">   1830.41628169 </i>
    <i name="pawpsdc">  53260.86991187 </i>
    <i name="pawaedc"> -57126.82090239 </i>
    <i name="eentropy">     -0.16799624 </i>
    <i name="bandstr">  -2442.63351184 </i>
    <i name="atom">  53514.87208113 </i>
    <i name="e_fr_energy">   -173.87757317 </i>
    <i name="e_wo_entrp">   -173.70957693 </i>
    <i name="e_0_energy">   -173.79357505 </i>
   </energy>
  </scstep>
  <structure>
   <crystal>
    <varray name="basis" >
     <v>       7.66857304       0.00000000       0.00000000 </v>
     <v>       0.00000000       7.66857304       0.00000000 </v>
     <v>       0.00000000       0.00000000      29.42250000 </v>
    </varray>
    <i name="volume">   1730.24932528 </i>
    <varray name="rec_basis" >
     <v>       0.13040236       0.00000000       0.00000000 </v>
     <v>       0.00000000       0.13040236       0.00000000 </v>
     <v>       0.00000000       0.00000000       0.03398759 </v>
    </varray>
   </crystal>
   <varray name="positions" >
    <v>       0.16666667       0.16666667       0.40785113 </v>
    <v>       0.50000000       0.16666667       0.40785113 </v>
    <v>       0.83333333       0.16666667       0.40785113 </v>
    <v>       0.16666667       0.50000000       0.40785113 </v>
    <v>       0.50000000       0.50000000       0.40785113 </v>
    <v>       0.83333333       0.50000000       0.40785113 </v>
    <v>       0.16666667       0.83333333       0.40785113 </v>
    <v>       0.50000000       0.83333333       0.40785113 </v>
    <v>       0.83333333       0.83333333       0.40785113 </v>
    <v>       0.00000000       0.00000000       0.46928371 </v>
    <v>       0.33333333       0.00000000       0.46928371 </v>
    <v>       0.66666667       0.00000000       0.46928371 </v>
    <v>       0.00000000       0.33333333       0.46928371 </v>
    <v>       0.33333333       0.33333333       0.46928371 </v>
    <v>       0.66666667       0.33333333       0.46928371 </v>
    <v>       0.00000000       0.66666667       0.46928371 </v>
    <v>       0.33333333       0.66666667       0.46928371 </v>
    <v>       0.66666667       0.66666667       0.46928371 </v>
    <v>       0.16670822       0.16644608       0.53066704 </v>
    <v>       0.49975075       0.16715656       0.53109889 </v>
    <v>       0.83354239       0.16715670       0.53110103 </v>
    <v>       0.16671466       0.50024043       0.53066974 </v>
    <v>       0.49975081       0.49953658       0.53110802 </v>
    <v>       0.83353615       0.49952945       0.53110388 </v>
    <v>       0.16670561       0.83330845       0.53102144 </v>
    <v>       0.49971082       0.83330224       0.53118152 </v>
    <v>       0.83358918       0.83330966       0.53118158 </v>
    <v>       0.00020810       0.99984048       0.59243454 </v>
    <v>       0.33301314       0.99985352       0.59241618 </v>
    <v>       0.66678179       0.99993953       0.59234644 </v>
    <v>       0.99688409       0.33327373       0.59197431 </v>
    <v>       0.33640600       0.33330227       0.59196140 </v>
    <v>       0.66674252       0.33330149       0.59217998 </v>
    <v>       0.00020804       0.66687966       0.59243511 </v>
    <v>       0.33303958       0.66684041       0.59241721 </v>
    <v>       0.66675535       0.66675384       0.59234740 </v>
    <v>       0.16571084       0.14939738       0.71644770 </v>
    <v>       0.16675383       0.91107683       0.62134621 </v>
    <v>       0.16678427       0.75561025       0.62134578 </v>
    <v>       0.16574206       0.51729025       0.71644605 </v>
    <v>       0.16267809       0.83335292       0.74040507 </v>
    <v>       0.16144142       0.83334354       0.77561883 </v>
    <v>       0.50135330       0.16652847       0.74055050 </v>
    <v>       0.49968423       0.16674837       0.77554827 </v>
    <v>       0.50135283       0.50010556       0.74055838 </v>
    <v>       0.49968465       0.49990873       0.77554534 </v>
    <v>       0.50362627       0.83336084       0.74066258 </v>
    <v>       0.50512445       0.83333717       0.77536926 </v>
   </varray>
  </structure>
  <varray name="forces" >
   <v>       0.00600758      -0.00124690      -0.07699241 </v>
   <v>      -0.00278984       0.00503282      -0.08806487 </v>
   <v>      -0.00271296      -0.00039110      -0.08895941 </v>
   <v>       0.01032372       0.00602045      -0.07635267 </v>
   <v>      -0.00281260       0.00415440      -0.08772774 </v>
   <v>      -0.00700718       0.00524826      -0.08862441 </v>
   <v>       0.00486967      -0.00497623      -0.10352884 </v>
   <v>       0.00465270      -0.00929259      -0.07575777 </v>
   <v>      -0.00891511      -0.00498982      -0.07671966 </v>
   <v>       0.00372140       0.00894058      -0.18439590 </v>
   <v>      -0.00757455       0.00875354      -0.18064363 </v>
   <v>       0.00460744      -0.03695982      -0.25346693 </v>
   <v>      -0.01370000      -0.00472205      -0.28527249 </v>
   <v>       0.01004057      -0.00360473      -0.28822430 </v>
   <v>       0.00424878      -0.00360086      -0.19015171 </v>
   <v>       0.00367475      -0.00439192      -0.17928711 </v>
   <v>      -0.00641798      -0.00534068      -0.17960426 </v>
   <v>       0.00351308       0.04031736      -0.25246205 </v>
   <v>       0.00150332       0.22625775       0.00555351 </v>
   <v>       0.00633384      -0.07841559       0.15430524 </v>
   <v>      -0.00640894      -0.07944403       0.15088752 </v>
   <v>       0.00160012      -0.22336081       0.00794949 </v>
   <v>       0.00590925       0.07747418       0.15434166 </v>
   <v>      -0.00640303       0.08059915       0.15389220 </v>
   <v>      -0.00025854      -0.00190393      -0.71601345 </v>
   <v>       0.17253955      -0.00090823       0.00920165 </v>
   <v>      -0.17164238      -0.00165485       0.00539906 </v>
   <v>      -4.10375092       2.76680248      -1.95043071 </v>
   <v>       4.12485508       2.77922104      -1.97412693 </v>
   <v>       0.00407667       0.07556768      -0.01667485 </v>
   <v>       0.03606132      -0.00311607       0.12979870 </v>
   <v>      -0.04573115      -0.00780849       0.13048032 </v>
   <v>       0.00461435      -0.00367927       0.17301075 </v>
   <v>      -4.10314392      -2.75980150      -1.95477370 </v>
   <v>       4.13072284      -2.77886640      -1.97641591 </v>
   <v>       0.00173774      -0.07252997      -0.01668091 </v>
   <v>      -0.04782374       0.71457319      -0.21034917 </v>
   <v>      -0.04499465       6.27311969       5.31823010 </v>
   <v>      -0.03134270      -6.26480648       5.32091839 </v>
   <v>      -0.04833634      -0.72408426      -0.20566911 </v>
   <v>      -0.38516322       0.00757579     -18.90282267 </v>
   <v>      -0.71219173       0.00338323      19.02249540 </v>
   <v>       0.29869835       0.08593785     -20.41026121 </v>
   <v>      -0.25284110       0.01231484      20.38739593 </v>
   <v>       0.30337921      -0.08556846     -20.48763002 </v>
   <v>      -0.25813724      -0.01781605      20.47488085 </v>
   <v>       0.34772023       0.00176059     -22.43809882 </v>
   <v>       0.77468826       0.00022624      22.41744288 </v>
  </varray>
  <varray name="stress" >
   <v>      26.35172145      -0.01124096      -0.38127374 </v>
   <v>      -0.01124118      30.30105156      -0.00107893 </v>
   <v>      -0.38127334      -0.00107899      93.17802454 </v>
  </varray>
  <energy>
   <i name="e_fr_energy">   -173.87757317 </i>
   <i name="e_wo_entrp">   -173.70957693 </i>
   <i name="e_0_energy">   -173.79357505 </i>
  </energy>
  <time name="totalsc">  163.42  163.79</time>
 </calculation>
 <calculation>
  <scstep>
   <time name="dav">    3.05    3.05</time>
   <time name="total">    3.31    3.31</time>
   <energy>
    <i name="alphaZ">    699.87540909 </i>
    <i name="ewald"> 306575.18805481 </i>
    <i name="hartreedc">-356492.14247618 </i>
    <i name="XCdc">   1829.37206667 </i>
    <i name="pawpsdc">  53260.86980289 </i>
    <i name="pawaedc"> -57126.82047622 </i>
    <i name="eentropy">     -0.12464220 </i>
    <i name="bandstr">  -2430.98011028 </i>
    <i name="atom">  53514.87208113 </i>
    <i name="e_fr_energy">   -169.89029030 </i>
    <i name="e_wo_entrp">   -169.76564810 </i>
    <i name="e_0_energy">   -169.82796920 </i>
   </energy>
  </scstep>
  <scstep>
   <time name="dav">    5.12    5.13</time>
   <time name="total">    5.38    5.39</time>
   <energy>
    <i name="e_fr_energy">   -183.36718943 </i>
    <i name="e_wo_entrp">   -183.32515494 </i>
    <i name="e_0_energy">   -183.34617219 </i>
   </energy>
  </scstep>
  <scstep>
   <time name="dav">    4.28    4.28</time>
   <time name="total">    4.53    4.54</time>
   <energy>
    <i name="e_fr_energy">   -177.07486372 </i>
    <i name="e_wo_entrp">   -177.01808879 </i>
    <i name="e_0_energy">   -177.04647626 </i>
   </energy>
  </scstep>
  <scstep>
   <time name="dav">    4.12    4.13</time>
   <time name="total">    4.38    4.39</time>
   <energy>
    <i name="e_fr_energy">   -171.53185015 </i>
    <i name="e_wo_entrp">   -171.38380422 </i>
    <i name="e_0_energy">   -171.45782719 </i>
   </energy>
  </scstep>
  <scstep>
   <time name="dav">    4.86    4.87</time>
   <time name="total">    5.12    5.13</time>
   <energy>
    <i name="e_fr_energy">   -171.16692303 </i>
    <i name="e_wo_entrp">   -171.03669757 </i>
    <i name="e_0_energy">   -171.10181030 </i>
   </energy>
  </scstep>
  <scstep>
   <time name="dav">    4.25    4.26</time>
   <time name="total">    4.51    4.52</time>
   <energy>
    <i name="e_fr_energy">   -171.22282679 </i>
    <i name="e_wo_entrp">   -171.08316348 </i>
    <i name="e_0_energy">   -171.15299513 </i>
   </energy>
  </scstep>
  <scstep>
   <time name="dav">    3.91    3.92</time>
   <time name="total">    4.17    4.18</time>
   <energy>
    <i name="e_fr_energy">   -172.40417572 </i>
    <i name="e_wo_entrp">   -172.31704052 </i>
    <i name="e_0_energy">   -172.36060812 </i>
   </energy>
  </scstep>
  <scstep>
   <time name="dav">    3.96    3.96</time>
   <time name="total">    4.21    4.23</time>
   <energy>
    <i name="e_fr_energy">   -171.12111083 </i>
    <i name="e_wo_entrp">   -170.96960628 </i>
    <i name="e_0_energy">   -171.04535855 </i>
   </energy>
  </scstep>
  <scstep>
   <time name="dav">    3.65    3.66</time>
   <time name="total">    3.91    3.92</time>
   <energy>
    <i name="e_fr_energy">   -171.08388336 </i>
    <i name="e_wo_entrp">   -170.93236237 </i>
    <i name="e_0_energy">   -171.00812287 </i>
   </energy>
  </scstep>
  <scstep>
   <time name="dav">    4.67    4.68</time>
   <time name="total">    4.93    4.94</time>
   <energy>
    <i name="e_fr_energy">   -171.07581704 </i>
    <i name="e_wo_entrp">   -170.92450325 </i>
    <i name="e_0_energy">   -171.00016014 </i>
   </energy>
  </scstep>
  <scstep>
   <time name="dav">    3.59    3.60</time>
   <time name="total">    3.85    3.86</time>
   <energy>
    <i name="e_fr_energy">   -171.08010511 </i>
    <i name="e_wo_entrp">   -170.93213204 </i>
    <i name="e_0_energy">   -171.00611858 </i>
   </energy>
  </scstep>
  <scstep>
   <time name="dav">    3.71    3.71</time>
   <time name="total">    3.97    3.97</time>
   <energy>
    <i name="e_fr_energy">   -171.07613560 </i>
    <i name="e_wo_entrp">   -170.92574934 </i>
    <i name="e_0_energy">   -171.00094247 </i>
   </energy>
  </scstep>
  <scstep>
   <time name="dav">    3.69    3.70</time>
   <time name="total">    3.95    3.96</time>
   <energy>
    <i name="e_fr_energy">   -171.07652891 </i>
    <i name="e_wo_entrp">   -170.92558772 </i>
    <i name="e_0_energy">   -171.00105831 </i>
   </energy>
  </scstep>
  <scstep>
   <time name="dav">    3.86    3.87</time>
   <time name="total">    4.12    4.13</time>
   <energy>
    <i name="e_fr_energy">   -171.07638440 </i>
    <i name="e_wo_entrp">   -170.92545373 </i>
    <i name="e_0_energy">   -171.00091907 </i>
   </energy>
  </scstep>
  <scstep>
   <time name="dav">    3.57    3.58</time>
   <time name="total">    3.84    3.84</time>
   <energy>
    <i name="e_fr_energy">   -171.07628444 </i>
    <i name="e_wo_entrp">   -170.92548353 </i>
    <i name="e_0_energy">   -171.00088398 </i>
   </energy>
  </scstep>
  <scstep>
   <time name="dav">    3.43    3.44</time>
   <time name="total">    3.70    3.70</time>
   <energy>
    <i name="e_fr_energy">   -171.07619798 </i>
    <i name="e_wo_entrp">   -170.92553275 </i>
    <i name="e_0_energy">   -171.00086536 </i>
   </energy>
  </scstep>
  <scstep>
   <time name="dav">    3.95    3.95</time>
   <time name="total">    4.21    4.22</time>
   <energy>
    <i name="e_fr_energy">   -171.07621518 </i>
    <i name="e_wo_entrp">   -170.92563835 </i>
    <i name="e_0_energy">   -171.00092676 </i>
   </energy>
  </scstep>
  <scstep>
   <time name="dav">    3.31    3.32</time>
   <time name="total">    3.58    3.58</time>
   <energy>
    <i name="e_fr_energy">   -171.07622131 </i>
    <i name="e_wo_entrp">   -170.92561055 </i>
    <i name="e_0_energy">   -171.00091593 </i>
   </energy>
  </scstep>
  <scstep>
   <time name="dav">    3.32    3.32</time>
   <time name="total">    3.58    3.59</time>
   <energy>
    <i name="e_fr_energy">   -171.07622593 </i>
    <i name="e_wo_entrp">   -170.92560640 </i>
    <i name="e_0_energy">   -171.00091617 </i>
   </energy>
  </scstep>
  <scstep>
   <time name="dav">    2.42    2.42</time>
   <time name="total">    2.68    2.69</time>
   <energy>
    <i name="e_fr_energy">   -171.07623145 </i>
    <i name="e_wo_entrp">   -170.92559788 </i>
    <i name="e_0_energy">   -171.00091467 </i>
   </energy>
  </scstep>
  <scstep>
   <time name="dav">    2.19    2.19</time>
   <time name="total">    2.46    2.46</time>
   <energy>
    <i name="e_fr_energy">   -171.07623540 </i>
    <i name="e_wo_entrp">   -170.92558235 </i>
    <i name="e_0_energy">   -171.00090887 </i>
   </energy>
  </scstep>
  <scstep>
   <time name="dav">    2.17    2.17</time>
   <time name="total">    2.44    2.44</time>
   <energy>
    <i name="e_fr_energy">   -171.07623783 </i>
    <i name="e_wo_entrp">   -170.92559167 </i>
    <i name="e_0_energy">   -171.00091475 </i>
   </energy>
  </scstep>
  <scstep>
   <time name="dav">    2.21    2.22</time>
   <time name="total">    2.48    2.49</time>
   <energy>
    <i name="e_fr_energy">   -171.07624182 </i>
    <i name="e_wo_entrp">   -170.92561099 </i>
    <i name="e_0_energy">   -171.00092641 </i>
   </energy>
  </scstep>
  <scstep>
   <time name="dav">    2.13    2.14</time>
   <time name="total">    2.41    2.41</time>
   <energy>
    <i name="e_fr_energy">   -171.07624402 </i>
    <i name="e_wo_entrp">   -170.92561217 </i>
    <i name="e_0_energy">   -171.00092810 </i>
   </energy>
  </scstep>
  <scstep>
   <time name="dav">    2.15    2.15</time>
   <time name="total">    2.42    2.42</time>
   <energy>
    <i name="e_fr_energy">   -171.07624673 </i>
    <i name="e_wo_entrp">   -170.92560836 </i>
    <i name="e_0_energy">   -171.00092755 </i>
   </energy>
  </scstep>
  <scstep>
   <time name="dav">    2.13    2.14</time>
   <time name="total">    2.41    2.42</time>
   <energy>
    <i name="e_fr_energy">   -171.07624827 </i>
    <i name="e_wo_entrp">   -170.92560731 </i>
    <i name="e_0_energy">   -171.00092779 </i>
   </energy>
  </scstep>
  <scstep>
   <time name="dav">    2.12    2.12</time>
   <time name="total">    2.17    2.17</time>
   <energy>
    <i name="alphaZ">    699.87540909 </i>
    <i name="ewald"> 306575.18805481 </i>
    <i name="hartreedc">-356452.81367497 </i>
    <i name="XCdc">   1827.98794085 </i>
    <i name="pawpsdc">  52930.03443727 </i>
    <i name="pawaedc"> -56799.02557484 </i>
    <i name="eentropy">     -0.15064128 </i>
    <i name="bandstr">  -2467.04428096 </i>
    <i name="atom">  53514.87208113 </i>
    <i name="e_fr_energy">   -171.07624891 </i>
    <i name="e_wo_entrp">   -170.92560763 </i>
    <i name="e_0_energy">   -171.00092827 </i>
   </energy>
  </scstep>
  <structure>
   <crystal>
    <varray name="basis" >
     <v>       7.66857304       0.00000000       0.00000000 </v>
     <v>       0.00000000       7.66857304       0.00000000 </v>
     <v>       0.00000000       0.00000000      29.42250000 </v>
    </varray>
    <i name="volume">   1730.24932528 </i>
    <varray name="rec_basis" >
     <v>       0.13040236       0.00000000       0.00000000 </v>
     <v>       0.00000000       0.13040236       0.00000000 </v>
     <v>       0.00000000       0.00000000       0.03398759 </v>
    </varray>
   </crystal>
   <varray name="positions" >
    <v>       0.16666667       0.16666667       0.40785113 </v>
    <v>       0.50000000       0.16666667       0.40785113 </v>
    <v>       0.83333333       0.16666667       0.40785113 </v>
    <v>       0.16666667       0.50000000       0.40785113 </v>
    <v>       0.50000000       0.50000000       0.40785113 </v>
    <v>       0.83333333       0.50000000       0.40785113 </v>
    <v>       0.16666667       0.83333333       0.40785113 </v>
    <v>       0.50000000       0.83333333       0.40785113 </v>
    <v>       0.83333333       0.83333333       0.40785113 </v>
    <v>       0.00000000       0.00000000       0.46928371 </v>
    <v>       0.33333333       0.00000000       0.46928371 </v>
    <v>       0.66666667       0.00000000       0.46928371 </v>
    <v>       0.00000000       0.33333333       0.46928371 </v>
    <v>       0.33333333       0.33333333       0.46928371 </v>
    <v>       0.66666667       0.33333333       0.46928371 </v>
    <v>       0.00000000       0.66666667       0.46928371 </v>
[...]
   <energy>
    <i name="e_fr_energy">   -189.92323869 </i>
    <i name="e_wo_entrp">   -189.84830812 </i>
    <i name="e_0_energy">   -189.88577340 </i>
   </energy>
  </scstep>
  <scstep>
   <time name="dav">    4.18    4.19</time>
   <time name="total">    4.44    4.46</time>
   <energy>
    <i name="e_fr_energy">   -189.91872678 </i>
    <i name="e_wo_entrp">   -189.84660935 </i>
    <i name="e_0_energy">   -189.88266806 </i>
   </energy>
  </scstep>
  <scstep>
   <time name="dav">    3.43    3.44</time>
   <time name="total">    3.69    3.70</time>
   <energy>
    <i name="e_fr_energy">   -189.91948034 </i>
    <i name="e_wo_entrp">   -189.84697493 </i>
    <i name="e_0_energy">   -189.88322764 </i>
   </energy>
  </scstep>
  <scstep>
   <time name="dav">    3.92    3.93</time>
   <time name="total">    4.18    4.19</time>
   <energy>
    <i name="e_fr_energy">   -189.91946853 </i>
    <i name="e_wo_entrp">   -189.84707150 </i>
    <i name="e_0_energy">   -189.88327001 </i>
   </energy>
  </scstep>
  <scstep>
   <time name="dav">    4.35    4.36</time>
   <time name="total">    4.61    4.62</time>
   <energy>
    <i name="e_fr_energy">   -189.91948932 </i>
    <i name="e_wo_entrp">   -189.84713338 </i>
    <i name="e_0_energy">   -189.88331135 </i>
   </energy>
  </scstep>
  <scstep>
   <time name="dav">    3.79    3.80</time>
   <time name="total">    4.05    4.06</time>
   <energy>
    <i name="e_fr_energy">   -189.91948062 </i>
    <i name="e_wo_entrp">   -189.84717297 </i>
    <i name="e_0_energy">   -189.88332679 </i>
   </energy>
  </scstep>
  <scstep>
   <time name="dav">    4.13    4.14</time>
   <time name="total">    4.39    4.41</time>
   <energy>
    <i name="e_fr_energy">   -189.91948098 </i>
    <i name="e_wo_entrp">   -189.84713655 </i>
    <i name="e_0_energy">   -189.88330877 </i>
   </energy>
  </scstep>
  <scstep>
   <time name="dav">    3.14    3.15</time>
   <time name="total">    3.19    3.19</time>
   <energy>
    <i name="alphaZ">    699.87540909 </i>
    <i name="ewald"> 295116.73401820 </i>
    <i name="hartreedc">-345256.26276568 </i>
    <i name="XCdc">   1823.70521779 </i>
    <i name="pawpsdc">  51632.23961483 </i>
    <i name="pawaedc"> -55488.79296453 </i>
    <i name="eentropy">     -0.07236039 </i>
    <i name="bandstr">  -2232.21773175 </i>
    <i name="atom">  53514.87208113 </i>
    <i name="e_fr_energy">   -189.91948131 </i>
    <i name="e_wo_entrp">   -189.84712092 </i>
    <i name="e_0_energy">   -189.88330111 </i>
   </energy>
  </scstep>
  <structure>
   <crystal>
    <varray name="basis" >
     <v>       7.66857304       0.00000000       0.00000000 </v>
     <v>       0.00000000       7.66857304       0.00000000 </v>
     <v>       0.00000000       0.00000000      29.42250000 </v>
    </varray>
    <i name="volume">   1730.24932528 </i>
    <varray name="rec_basis" >
     <v>       0.13040236       0.00000000       0.00000000 </v>
     <v>       0.00000000       0.13040236       0.00000000 </v>
     <v>       0.00000000       0.00000000       0.03398759 </v>
    </varray>
   </crystal>
   <varray name="positions" >
    <v>       0.16666667       0.16666667       0.40785113 </v>
    <v>       0.50000000       0.16666667       0.40785113 </v>
    <v>       0.83333333       0.16666667       0.40785113 </v>
    <v>       0.16666667       0.50000000       0.40785113 </v>
    <v>       0.50000000       0.50000000       0.40785113 </v>
    <v>       0.83333333       0.50000000       0.40785113 </v>
    <v>       0.16666667       0.83333333       0.40785113 </v>
    <v>       0.50000000       0.83333333       0.40785113 </v>
    <v>       0.83333333       0.83333333       0.40785113 </v>
    <v>       0.00000000       0.00000000       0.46928371 </v>
    <v>       0.33333333       0.00000000       0.46928371 </v>
    <v>       0.66666667       0.00000000       0.46928371 </v>
    <v>       0.00000000       0.33333333       0.46928371 </v>
    <v>       0.33333333       0.33333333       0.46928371 </v>
    <v>       0.66666667       0.33333333       0.46928371 </v>
    <v>       0.00000000       0.66666667       0.46928371 </v>
    <v>       0.33333333       0.66666667       0.46928371 </v>
    <v>       0.66666667       0.66666667       0.46928371 </v>
    <v>       0.15386087       0.16367640       0.53491854 </v>
    <v>       0.48745635       0.16258694       0.53225183 </v>
    <v>       0.82874384       0.17461634       0.53450020 </v>
    <v>       0.17385080       0.49928312       0.53545030 </v>
    <v>       0.50714450       0.49660467       0.53436626 </v>
    <v>       0.84853656       0.50156730       0.53432516 </v>
    <v>       0.16752411       0.83078640       0.53239669 </v>
    <v>       0.49286026       0.82577414       0.53192028 </v>
    <v>       0.84222846       0.84030321       0.53137110 </v>
    <v>       0.97187493       0.02246842       0.60003195 </v>
    <v>       0.32416332       0.98155355       0.59957929 </v>
    <v>       0.64927912       0.99582963       0.58999460 </v>
    <v>       0.99849242       0.35864735       0.60620793 </v>
    <v>       0.33191248       0.31373045       0.59429992 </v>
    <v>       0.66566923       0.33500576       0.59708542 </v>
    <v>       0.01233849       0.68290258       0.60062354 </v>
    <v>       0.37390491       0.63755801       0.60415363 </v>
    <v>       0.68707933       0.67256345       0.59170416 </v>
    <v>       0.01172632       0.33169142       0.67330497 </v>
    <v>       0.10747384       0.88978492       0.64192636 </v>
    <v>       0.22943601       0.77522204       0.64382544 </v>
    <v>       0.99078757       0.39242225       0.71393753 </v>
    <v>       0.14140101       0.83875479       0.81365757 </v>
    <v>       0.12540824       0.83426550       0.85240221 </v>
    <v>       0.43346909       0.10665365       0.74380225 </v>
    <v>       0.43838105       0.13801579       0.78199443 </v>
    <v>       0.45210415       0.54755355       0.74557759 </v>
    <v>       0.43979997       0.54040462       0.78451712 </v>
    <v>       0.77469582       0.82425222       0.73085387 </v>
    <v>       0.76623951       0.84058077       0.76958822 </v>
   </varray>
  </structure>
  <varray name="forces" >
   <v>       0.00961103       0.02518578      -0.04266429 </v>
   <v>      -0.01004556       0.01881861      -0.07837898 </v>
   <v>       0.00084475      -0.00567836      -0.06979862 </v>
   <v>       0.02605324      -0.02197400      -0.05661337 </v>
   <v>      -0.00436876      -0.00147939      -0.08206398 </v>
   <v>      -0.01305839       0.00605365      -0.05808471 </v>
   <v>      -0.01086216       0.00096884      -0.06364434 </v>
   <v>       0.02391623      -0.01906081      -0.05289005 </v>
   <v>      -0.01745887       0.00550645      -0.04860040 </v>
   <v>       0.02394550       0.13199201      -0.05918634 </v>
   <v>      -0.13543912       0.00678633      -0.01779885 </v>
   <v>      -0.02286876       0.04079985       0.03200148 </v>
   <v>       0.05109247       0.02175066       0.04623444 </v>
   <v>      -0.09327434       0.02310700       0.05119709 </v>
   <v>       0.03741654       0.02303432       0.16220543 </v>
   <v>       0.09486408      -0.08404200       0.02223303 </v>
   <v>      -0.02201377      -0.15863867       0.02429750 </v>
   <v>       0.07178590      -0.05445376       0.05443252 </v>
   <v>       0.04707821       0.06770926       0.03317599 </v>
   <v>       0.09895522      -0.03583638       0.09928993 </v>
   <v>       0.02222444      -0.02981398      -0.01368549 </v>
   <v>      -0.02433333      -0.03213878       0.10075165 </v>
   <v>      -0.06371231      -0.03203056      -0.05751419 </v>
   <v>      -0.01623431       0.06413796       0.15163321 </v>
   <v>      -0.01818680       0.03560929      -0.05590800 </v>
   <v>       0.16545255       0.01072642       0.14921842 </v>
   <v>      -0.20591417      -0.06553013       0.21958055 </v>
   <v>      -0.08602620       0.11954670       0.08252160 </v>
   <v>      -0.06008277       0.11121069      -0.08353885 </v>
   <v>       0.08207011       0.19213167       0.27588055 </v>
   <v>      -0.12554726       0.01364178      -0.05608315 </v>
   <v>       0.06895776       0.08252191       0.08597100 </v>
   <v>      -0.05928470      -0.00351169      -0.14325418 </v>
   <v>       0.09147543      -0.05509465      -0.21364872 </v>
   <v>      -0.23074950      -0.06334176       0.10144469 </v>
   <v>       0.04386005      -0.15350301       0.10333119 </v>
   <v>       0.11480209      -0.32207868      -0.15456010 </v>
   <v>      -0.37724378       0.50132131      -0.04324607 </v>
   <v>       0.61764731      -0.54814349      -0.16419300 </v>
   <v>      -0.08569666       0.20861068      -0.28902195 </v>
   <v>       0.02864808       0.00317592      -0.03322900 </v>
   <v>      -0.02449215      -0.00574965       0.14104352 </v>
   <v>      -0.00973645       0.07790919       0.23052462 </v>
   <v>      -0.02410828      -0.12056751      -0.23024861 </v>
   <v>      -0.04323126      -0.04793427       0.36514887 </v>
   <v>      -0.00754158       0.07392376      -0.33466158 </v>
   <v>       0.02705420      -0.00224878      -0.01264140 </v>
   <v>       0.04375607      -0.00332974      -0.01695903 </v>
  </varray>
  <varray name="stress" >
   <v>       0.35126856      -0.53105302       0.18163733 </v>
   <v>      -0.53105322       0.75616658       0.07518560 </v>
   <v>       0.18163788       0.07518580      -3.82802900 </v>
  </varray>
  <energy>
   <i name="e_fr_energy">   -189.91948131 </i>
   <i name="e_wo_entrp">   -189.84712092 </i>
   <i name="e_0_energy">   -189.88330111 </i>
  </energy>
  <time name="totalsc">   40.59   40.70</time>
 </calculation>
 <calculation>
  <scstep>
   <time name="dav">    2.98    2.99</time>
   <time name="total">    3.24    3.24</time>
   <energy>
    <i name="alphaZ">    699.87540909 </i>
    <i name="ewald"> 295117.23923590 </i>
    <i name="hartreedc">-345256.62739256 </i>
    <i name="XCdc">   1823.71036781 </i>
    <i name="pawpsdc">  51632.21235846 </i>
    <i name="pawaedc"> -55488.76428189 </i>
    <i name="eentropy">     -0.07227817 </i>
    <i name="bandstr">  -2232.36974865 </i>
    <i name="atom">  53514.87208113 </i>
    <i name="e_fr_energy">   -189.92424889 </i>
    <i name="e_wo_entrp">   -189.85197071 </i>
    <i name="e_0_energy">   -189.88810980 </i>
   </energy>
  </scstep>
  <scstep>
   <time name="dav">    4.11    4.12</time>
   <time name="total">    4.37    4.38</time>
   <energy>
    <i name="e_fr_energy">   -189.92466796 </i>
    <i name="e_wo_entrp">   -189.85288589 </i>
    <i name="e_0_energy">   -189.88877692 </i>
   </energy>
  </scstep>
  <scstep>
   <time name="dav">    3.48    3.49</time>
   <time name="total">    3.74    3.75</time>
   <energy>
    <i name="e_fr_energy">   -189.92446570 </i>
    <i name="e_wo_entrp">   -189.85189826 </i>
    <i name="e_0_energy">   -189.88818198 </i>
   </energy>
  </scstep>
  <scstep>
   <time name="dav">    3.35    3.36</time>
   <time name="total">    3.61    3.62</time>
   <energy>
    <i name="e_fr_energy">   -189.92450055 </i>
    <i name="e_wo_entrp">   -189.85224763 </i>
    <i name="e_0_energy">   -189.88837409 </i>
   </energy>
  </scstep>
  <scstep>
   <time name="dav">    3.60    3.61</time>
   <time name="total">    3.86    3.87</time>
   <energy>
    <i name="e_fr_energy">   -189.92450038 </i>
    <i name="e_wo_entrp">   -189.85223048 </i>
    <i name="e_0_energy">   -189.88836543 </i>
   </energy>
  </scstep>
  <scstep>
   <time name="dav">    3.89    3.90</time>
   <time name="total">    4.15    4.16</time>
   <energy>
    <i name="e_fr_energy">   -189.92449974 </i>
    <i name="e_wo_entrp">   -189.85218637 </i>
    <i name="e_0_energy">   -189.88834306 </i>
   </energy>
  </scstep>
  <scstep>
   <time name="dav">    3.93    3.94</time>
   <time name="total">    4.19    4.21</time>
   <energy>
    <i name="e_fr_energy">   -189.92450047 </i>
    <i name="e_wo_entrp">   -189.85221944 </i>
    <i name="e_0_energy">   -189.88835995 </i>
   </energy>
  </scstep>
  <scstep>
   <time name="dav">    2.37    2.37</time>
   <time name="total">    2.41    2.42</time>
   <energy>
    <i name="alphaZ">    699.87540909 </i>
    <i name="ewald"> 295117.23923590 </i>
    <i name="hartreedc">-345256.89296089 </i>
    <i name="XCdc">   1823.71399280 </i>
    <i name="pawpsdc">  51634.28162758 </i>
    <i name="pawaedc"> -55490.83281432 </i>
    <i name="eentropy">     -0.07229140 </i>
    <i name="bandstr">  -2232.10877965 </i>
    <i name="atom">  53514.87208113 </i>
    <i name="e_fr_energy">   -189.92449977 </i>
    <i name="e_wo_entrp">   -189.85220837 </i>
    <i name="e_0_energy">   -189.88835407 </i>
   </energy>
  </scstep>
  <structure>
   <crystal>
    <varray name="basis" >
     <v>       7.66857304       0.00000000       0.00000000 </v>
     <v>       0.00000000       7.66857304       0.00000000 </v>
     <v>       0.00000000       0.00000000      29.42250000 </v>
    </varray>
    <i name="volume">   1730.24932528 </i>
    <varray name="rec_basis" >
     <v>       0.13040236       0.00000000       0.00000000 </v>
     <v>       0.00000000       0.13040236       0.00000000 </v>
     <v>       0.00000000       0.00000000       0.03398759 </v>
    </varray>
   </crystal>
   <varray name="positions" >
    <v>       0.16666667       0.16666667       0.40785113 </v>
    <v>       0.50000000       0.16666667       0.40785113 </v>
    <v>       0.83333333       0.16666667       0.40785113 </v>
    <v>       0.16666667       0.50000000       0.40785113 </v>
    <v>       0.50000000       0.50000000       0.40785113 </v>
    <v>       0.83333333       0.50000000       0.40785113 </v>
    <v>       0.16666667       0.83333333       0.40785113 </v>
    <v>       0.50000000       0.83333333       0.40785113 </v>
    <v>       0.83333333       0.83333333       0.40785113 </v>
    <v>       0.00000000       0.00000000       0.46928371 </v>
    <v>       0.33333333       0.00000000       0.46928371 </v>
    <v>       0.66666667       0.00000000       0.46928371 </v>
    <v>       0.00000000       0.33333333       0.46928371 </v>
    <v>       0.33333333       0.33333333       0.46928371 </v>
    <v>       0.66666667       0.33333333       0.46928371 </v>
    <v>       0.00000000       0.66666667       0.46928371 </v>
    <v>       0.33333333       0.66666667       0.46928371 </v>
    <v>       0.66666667       0.66666667       0.46928371 </v>
    <v>       0.15389292       0.16372002       0.53492303 </v>
    <v>       0.48752309       0.16255799       0.53226991 </v>
    <v>       0.82875460       0.17459657       0.53449939 </v>
    <v>       0.17383604       0.49926232       0.53546556 </v>
    <v>       0.50710850       0.49657710       0.53435733 </v>
    <v>       0.84852301       0.50161664       0.53435142 </v>
    <v>       0.16751268       0.83080862       0.53238541 </v>
    <v>       0.49297258       0.82577692       0.53194673 </v>
    <v>       0.84209140       0.84026158       0.53141038 </v>
    <v>       0.97178794       0.02257677       0.60004205 </v>
    <v>       0.32410916       0.98160880       0.59956537 </v>
    <v>       0.64932363       0.99595436       0.59004300 </v>
    <v>       0.99841716       0.35865578       0.60618753 </v>
    <v>       0.33195587       0.31377513       0.59431460 </v>
    <v>       0.66563259       0.33500323       0.59706308 </v>
    <v>       0.01240778       0.68286378       0.60058648 </v>
    <v>       0.37376729       0.63750476       0.60417069 </v>
    <v>       0.68712141       0.67246386       0.59172286 </v>
    <v>       0.01179913       0.33147963       0.67331352 </v>
    <v>       0.10758717       0.88978619       0.64192873 </v>
    <v>       0.22949916       0.77517233       0.64379122 </v>
    <v>       0.99075733       0.39254854       0.71389974 </v>
    <v>       0.14140904       0.83875163       0.81364943 </v>
    <v>       0.12540008       0.83426469       0.85240052 </v>
    <v>       0.43346899       0.10668494       0.74381096 </v>
    <v>       0.43835501       0.13795992       0.78198741 </v>
    <v>       0.45208957       0.54753172       0.74559363 </v>
    <v>       0.43976661       0.54044525       0.78450444 </v>
    <v>       0.77473227       0.82425717       0.73085506 </v>
    <v>       0.76626315       0.84057760       0.76958924 </v>
   </varray>
  </structure>
  <varray name="forces" >
   <v>       0.00968819       0.02517869      -0.04257565 </v>
   <v>      -0.01013124       0.01890611      -0.07829369 </v>
   <v>       0.00078455      -0.00560086      -0.06967653 </v>
   <v>       0.02616498      -0.02196352      -0.05639385 </v>
   <v>      -0.00438039      -0.00146166      -0.08206216 </v>
   <v>      -0.01316785       0.00602383      -0.05782277 </v>
   <v>      -0.01079530       0.00104942      -0.06325731 </v>
   <v>       0.02387671      -0.01911378      -0.05297018 </v>
   <v>      -0.01747045       0.00553424      -0.04859862 </v>
   <v>       0.02231131       0.13055899      -0.05638164 </v>
   <v>      -0.13408046       0.00681285      -0.01592870 </v>
   <v>      -0.02248484       0.04029536       0.03251847 </v>
   <v>       0.05056938       0.02246568       0.04756882 </v>
   <v>      -0.09292462       0.02251922       0.05210273 </v>
   <v>       0.03773049       0.02292261       0.16269000 </v>
   <v>       0.09347353      -0.08342741       0.02428664 </v>
   <v>      -0.02124210      -0.15776859       0.02622798 </v>
   <v>       0.07182047      -0.05427352       0.05486991 </v>
   <v>       0.04684457       0.06628774       0.03264463 </v>
   <v>       0.09592180      -0.03558136       0.09659508 </v>
   <v>       0.02280838      -0.02877110      -0.01516389 </v>
   <v>      -0.02393021      -0.03107539       0.09772267 </v>
   <v>      -0.06344365      -0.02921947      -0.05572051 </v>
   <v>      -0.01533821       0.06094221       0.14413017 </v>
   <v>      -0.01765345       0.03574623      -0.05599533 </v>
   <v>       0.15996490       0.01038575       0.14724713 </v>
   <v>      -0.19864120      -0.06213048       0.21287461 </v>
   <v>      -0.07606628       0.11042476       0.08966533 </v>
   <v>      -0.05845077       0.11069592      -0.08360946 </v>
   <v>       0.07810749       0.18555990       0.27343786 </v>
   <v>      -0.12356734       0.01245478      -0.05084114 </v>
   <v>       0.06629424       0.07991715       0.08511589 </v>
   <v>      -0.05794083      -0.00357542      -0.13920414 </v>
   <v>       0.09138097      -0.04920027      -0.20898093 </v>
   <v>      -0.21619060      -0.06989097       0.09070968 </v>
   <v>       0.03713237      -0.14916699       0.10727047 </v>
   <v>       0.11808267      -0.32358379      -0.16521034 </v>
   <v>      -0.38893972       0.50994721      -0.05093399 </v>
   <v>       0.61163259      -0.54422639      -0.15494974 </v>
   <v>      -0.08748758       0.21118662      -0.28050964 </v>
   <v>       0.02620718       0.00255147      -0.01085726 </v>
   <v>      -0.02203537      -0.00501745       0.11858466 </v>
   <v>      -0.01180160       0.06359679       0.16517418 </v>
   <v>      -0.02216064      -0.10691228      -0.16591657 </v>
   <v>      -0.03568829      -0.04307260       0.27223279 </v>
   <v>      -0.01480744       0.06868407      -0.24130838 </v>
   <v>       0.02672860      -0.00238325      -0.01435383 </v>
   <v>       0.04329505      -0.00323105      -0.01615348 </v>
  </varray>
  <varray name="stress" >
   <v>       0.35528748      -0.53478550       0.16032525 </v>
   <v>      -0.53478527       0.76580395       0.10070469 </v>
   <v>       0.16032496       0.10070452      -3.67334657 </v>
  </varray>
  <energy>
   <i name="e_fr_energy">   -189.92449977 </i>
   <i name="e_wo_entrp">   -189.85220837 </i>
   <i name="e_0_energy">   -189.88835407 </i>
  </energy>
  <time name="totalsc">   33.96   34.07</time>
 </calculation>
