Cu(100) coverage-dependent binding (RPBE
            1
     7.668573    0.000000    0.000000
     0.000000    7.668573    0.000000
     0.000000    0.000000   29.422500
   Cu   O    C    O    C    O    C    O    C    O    C    O 
    36     1     2     1     1     1     1     1     1     1     1     1
Direct configuration=     1
   0.16666667  0.16666667  0.40785113
   0.50000000  0.16666667  0.40785113
   0.83333333  0.16666667  0.40785113
   0.16666667  0.50000000  0.40785113
   0.50000000  0.50000000  0.40785113
   0.83333333  0.50000000  0.40785113
   0.16666667  0.83333333  0.40785113
   0.50000000  0.83333333  0.40785113
   0.83333333  0.83333333  0.40785113
   0.00000000  0.00000000  0.46928371
   0.33333333  0.00000000  0.46928371
   0.66666667  0.00000000  0.46928371
   0.00000000  0.33333333  0.46928371
   0.33333333  0.33333333  0.46928371
   0.66666667  0.33333333  0.46928371
   0.00000000  0.66666667  0.46928371
   0.33333333  0.66666667  0.46928371
   0.66666667  0.66666667  0.46928371
   0.16666667  0.16666667  0.53071629
   0.50000000  0.16666667  0.53071629
   0.83333333  0.16666667  0.53071629
   0.16666667  0.50000000  0.53071629
   0.50000000  0.50000000  0.53071629
   0.83333333  0.50000000  0.53071629
   0.16666667  0.83333333  0.53071629
   0.50000000  0.83333333  0.53071629
   0.83333333  0.83333333  0.53071629
   0.00000000  0.00000000  0.59214887
   0.33333333  0.00000000  0.59214887
   0.66666667  0.00000000  0.59214887
   0.00000000  0.33333333  0.59214887
   0.33333333  0.33333333  0.59214887
   0.66666667  0.33333333  0.59214887
   0.00000000  0.66666667  0.59214887
   0.33333333  0.66666667  0.59214887
   0.66666667  0.66666667  0.59214887
   0.16666667  0.23553157  0.68731413
   0.16666667  0.28443245  0.64992778
   0.16666667  0.38223422  0.64992778
   0.16666667  0.43113510  0.68731413
   0.16666667  0.83333333  0.73829552
   0.16666667  0.83333333  0.77772113
   0.50000000  0.16666667  0.73829552
   0.50000000  0.16666667  0.77772113
   0.50000000  0.50000000  0.73829552
   0.50000000  0.50000000  0.77772113
   0.50000000  0.83333333  0.73829552
   0.50000000  0.83333333  0.77772113
Direct configuration=     2
   0.16666667  0.16666667  0.40785113
   0.50000000  0.16666667  0.40785113
   0.83333333  0.16666667  0.40785113
   0.16666667  0.50000000  0.40785113
   0.50000000  0.50000000  0.40785113
   0.83333333  0.50000000  0.40785113
   0.16666667  0.83333333  0.40785113
   0.50000000  0.83333333  0.40785113
   0.83333333  0.83333333  0.40785113
   0.00000000  0.00000000  0.46928371
   0.33333333  0.00000000  0.46928371
   0.66666667  0.00000000  0.46928371
   0.00000000  0.33333333  0.46928371
   0.33333333  0.33333333  0.46928371
   0.66666667  0.33333333  0.46928371
   0.00000000  0.66666667  0.46928371
   0.33333333  0.66666667  0.46928371
   0.66666667  0.66666667  0.46928371
   0.16670822  0.16644608  0.53066704
   0.49975075  0.16715656  0.53109889
   0.83354239  0.16715670  0.53110103
   0.16671466  0.50024043  0.53066974
   0.49975081  0.49953658  0.53110802
   0.83353615  0.49952945  0.53110388
   0.16670561  0.83330845  0.53102144
   0.49971082  0.83330224  0.53118152
   0.83358918  0.83330966  0.53118158
   0.00020810  0.99984048  0.59243454
   0.33301314  0.99985352  0.59241618
   0.66678179  0.99993953  0.59234644
   0.99688409  0.33327373  0.59197431
   0.33640600  0.33330227  0.59196140
   0.66674252  0.33330149  0.59217998
   0.00020804  0.66687966  0.59243511
   0.33303958  0.66684041  0.59241721
   0.66675535  0.66675384  0.59234740
   0.16571084  0.14939738  0.71644770
   0.16675383  0.91107683  0.62134621
   0.16678427  0.75561025  0.62134578
   0.16574206  0.51729025  0.71644605
   0.16267809  0.83335292  0.74040507
   0.16144142  0.83334354  0.77561883
   0.50135330  0.16652847  0.74055050
   0.49968423  0.16674837  0.77554827
   0.50135283  0.50010556  0.74055838
   0.49968465  0.49990873  0.77554534
   0.50362627  0.83336084  0.74066258
   0.50512445  0.83333717  0.77536926
Direct configuration=     3
   0.16666667  0.16666667  0.40785113
   0.50000000  0.16666667  0.40785113
   0.83333333  0.16666667  0.40785113
   0.16666667  0.50000000  0.40785113
   0.50000000  0.50000000  0.40785113
   0.83333333  0.50000000  0.40785113
   0.16666667  0.83333333  0.40785113
   0.50000000  0.83333333  0.40785113
   0.83333333  0.83333333  0.40785113
   0.00000000  0.00000000  0.46928371
   0.33333333  0.00000000  0.46928371
   0.66666667  0.00000000  0.46928371
   0.00000000  0.33333333  0.46928371
   0.33333333  0.33333333  0.46928371
   0.66666667  0.33333333  0.46928371
   0.00000000  0.66666667  0.46928371
   0.33333333  0.66666667  0.46928371
   0.66666667  0.66666667  0.46928371
   0.16670690  0.16645307  0.53066860
   0.49975865  0.16714103  0.53108676
   0.83353576  0.16714117  0.53108883
   0.16671314  0.50023280  0.53067121
   0.49975871  0.49955127  0.53109560
   0.83352972  0.49954437  0.53109160
   0.16670438  0.83330924  0.53101177
   0.49971999  0.83330323  0.53116677
   0.83358107  0.83331041  0.53116683
   0.00020151  0.99984554  0.59242548
   0.33302329  0.99985816  0.59240771
   0.66677814  0.99994145  0.59234018
   0.99698287  0.33327562  0.59197984
   0.33630859  0.33330325  0.59196734
   0.66674011  0.33330250  0.59217899
   0.00020145  0.66687291  0.59242603
   0.33304889  0.66683490  0.59240870
   0.66675254  0.66675108  0.59234110
   0.16574114  0.15212797  0.71552412
   0.16675107  0.95461431  0.62225229
   0.16678054  0.71207213  0.62225187
   0.16577138  0.51455900  0.71552252
   0.16280454  0.83335230  0.74033819
   0.16160707  0.83334322  0.77568547
   0.50131040  0.16653285  0.74047901
   0.49969424  0.16674578  0.77561715
   0.50130995  0.50010221  0.74048664
   0.49969465  0.49991163  0.77561432
   0.50351131  0.83335997  0.74058754
   0.50496200  0.83333705  0.77544382
Direct configuration=     4
   0.16666667  0.16666667  0.40785113
   0.50000000  0.16666667  0.40785113
   0.83333333  0.16666667  0.40785113
   0.16666667  0.50000000  0.40785113
   0.50000000  0.50000000  0.40785113
   0.83333333  0.50000000  0.40785113
   0.16666667  0.83333333  0.40785113
   0.50000000  0.83333333  0.40785113
   0.83333333  0.83333333  0.40785113
   0.00000000  0.00000000  0.46928371
   0.33333333  0.00000000  0.46928371
   0.66666667  0.00000000  0.46928371
   0.00000000  0.33333333  0.46928371
   0.33333333  0.33333333  0.46928371
   0.66666667  0.33333333  0.46928371
   0.00000000  0.66666667  0.46928371
   0.33333333  0.66666667  0.46928371
   0.66666667  0.66666667  0.46928371
   0.16670741  0.16645038  0.53066800
   0.49975561  0.16714701  0.53109143
   0.83353831  0.16714715  0.53109353
   0.16671372  0.50023574  0.53067064
   0.49975567  0.49954561  0.53110038
   0.83353220  0.49953863  0.53109632
   0.16670485  0.83330894  0.53101549
   0.49971646  0.83330285  0.53117244
   0.83358419  0.83331012  0.53117251
   0.00020405  0.99984359  0.59242897
   0.33301938  0.99985638  0.59241097
   0.66677954  0.99994071  0.59234259
   0.99694485  0.33327489  0.59197771
   0.33634608  0.33330287  0.59196505
   0.66674104  0.33330211  0.59217937
   0.00020399  0.66687551  0.59242953
   0.33304531  0.66683702  0.59241198
   0.66675362  0.66675214  0.59234353
   0.16572948  0.15107705  0.71587958
   0.16675213  0.93785807  0.62190356
   0.16678198  0.72882861  0.62190315
   0.16576009  0.51561018  0.71587796
   0.16275587  0.83335254  0.74036393
   0.16154332  0.83334334  0.77565982
   0.50132691  0.16653116  0.74050652
   0.49969039  0.16674678  0.77559064
   0.50132645  0.50010350  0.74051425
   0.49969080  0.49991051  0.77558777
   0.50355556  0.83336030  0.74061642
   0.50502452  0.83333710  0.77541512
Direct configuration=     5
   0.16666667  0.16666667  0.40785113
   0.50000000  0.16666667  0.40785113
   0.83333333  0.16666667  0.40785113
   0.16666667  0.50000000  0.40785113
   0.50000000  0.50000000  0.40785113
   0.83333333  0.50000000  0.40785113
   0.16666667  0.83333333  0.40785113
   0.50000000  0.83333333  0.40785113
   0.83333333  0.83333333  0.40785113
   0.00000000  0.00000000  0.46928371
   0.33333333  0.00000000  0.46928371
   0.66666667  0.00000000  0.46928371
   0.00000000  0.33333333  0.46928371
   0.33333333  0.33333333  0.46928371
   0.66666667  0.33333333  0.46928371
   0.00000000  0.66666667  0.46928371
   0.33333333  0.66666667  0.46928371
   0.66666667  0.66666667  0.46928371
   0.16670781  0.16644823  0.53066752
   0.49975318  0.16715178  0.53109516
   0.83354035  0.16715192  0.53109728
   0.16671419  0.50023808  0.53067019
   0.49975324  0.49954109  0.53110420
   0.83353418  0.49953404  0.53110010
   0.16670523  0.83330870  0.53101847
   0.49971364  0.83330254  0.53117698
   0.83358668  0.83330989  0.53117705
   0.00020607  0.99984203  0.59243175
   0.33301626  0.99985495  0.59241357
   0.66678067  0.99994012  0.59234452
   0.99691447  0.33327431  0.59197601
   0.33637604  0.33330257  0.59196323
   0.66674178  0.33330180  0.59217967
   0.00020602  0.66687759  0.59243232
   0.33304244  0.66683872  0.59241460
   0.66675448  0.66675299  0.59234546
   0.16572016  0.15023722  0.71616364
   0.16675298  0.92446745  0.62162489
   0.16678312  0.74221943  0.62162446
   0.16575108  0.51645022  0.71616200
   0.16271698  0.83335273  0.74038450
   0.16149237  0.83334344  0.77563933
   0.50134010  0.16652982  0.74052851
   0.49968731  0.16674757  0.77556946
   0.50133964  0.50010453  0.74053631
   0.49968772  0.49990962  0.77556656
   0.50359091  0.83336057  0.74063950
   0.50507449  0.83333714  0.77539219
Direct configuration=     6
   0.16666667  0.16666667  0.40785113
   0.50000000  0.16666667  0.40785113
   0.83333333  0.16666667  0.40785113
   0.16666667  0.50000000  0.40785113
   0.50000000  0.50000000  0.40785113
   0.83333333  0.50000000  0.40785113
   0.16666667  0.83333333  0.40785113
   0.50000000  0.83333333  0.40785113
   0.83333333  0.83333333  0.40785113
   0.00000000  0.00000000  0.46928371
   0.33333333  0.00000000  0.46928371
   0.66666667  0.00000000  0.46928371
   0.00000000  0.33333333  0.46928371
   0.33333333  0.33333333  0.46928371
   0.66666667  0.33333333  0.46928371
   0.00000000  0.66666667  0.46928371
   0.33333333  0.66666667  0.46928371
   0.66666667  0.66666667  0.46928371
   0.16670802  0.16644715  0.53066728
   0.49975196  0.16715417  0.53109702
   0.83354137  0.16715431  0.53109915
   0.16671442  0.50023925  0.53066996
   0.49975203  0.49953883  0.53110611
   0.83353517  0.49953175  0.53110199
   0.16670542  0.83330858  0.53101996
   0.49971223  0.83330239  0.53117925
   0.83358793  0.83330977  0.53117932
   0.00020709  0.99984126  0.59243314
   0.33301470  0.99985423  0.59241488
   0.66678123  0.99993983  0.59234548
   0.99689928  0.33327402  0.59197516
   0.33639102  0.33330242  0.59196231
   0.66674215  0.33330165  0.59217982
   0.00020703  0.66687862  0.59243371
   0.33304101  0.66683956  0.59241590
   0.66675492  0.66675342  0.59234643
   0.16571550  0.14981730  0.71630567
   0.16675341  0.91777214  0.62148555
   0.16678370  0.74891484  0.62148512
   0.16574657  0.51687024  0.71630402
   0.16269754  0.83335282  0.74039478
   0.16146690  0.83334349  0.77562908
   0.50134670  0.16652914  0.74053950
   0.49968577  0.16674797  0.77555886
   0.50134624  0.50010504  0.74054734
   0.49968619  0.49990918  0.77555595
   0.50360859  0.83336071  0.74065104
   0.50509947  0.83333716  0.77538072
Direct configuration=     7
   0.16666667  0.16666667  0.40785113
   0.50000000  0.16666667  0.40785113
   0.83333333  0.16666667  0.40785113
   0.16666667  0.50000000  0.40785113
   0.50000000  0.50000000  0.40785113
   0.83333333  0.50000000  0.40785113
   0.16666667  0.83333333  0.40785113
   0.50000000  0.83333333  0.40785113
   0.83333333  0.83333333  0.40785113
   0.00000000  0.00000000  0.46928371
   0.33333333  0.00000000  0.46928371
   0.66666667  0.00000000  0.46928371
   0.00000000  0.33333333  0.46928371
   0.33333333  0.33333333  0.46928371
   0.66666667  0.33333333  0.46928371
   0.00000000  0.66666667  0.46928371
   0.33333333  0.66666667  0.46928371
   0.66666667  0.66666667  0.46928371
   0.16671706  0.16794084  0.53064620
   0.49981186  0.16673377  0.53134143
   0.83347834  0.16672839  0.53133791
   0.16672431  0.49876595  0.53065286
   0.49980922  0.49995576  0.53135093
   0.83347198  0.49996716  0.53134579
   0.16670285  0.83329655  0.52993353
   0.50085377  0.83329626  0.53119362
   0.83244998  0.83329927  0.53118695
   0.97234297  0.01683511  0.58891839
   0.36102514  0.01693030  0.58885536
   0.66680886  0.00045819  0.59234204
   0.99692358  0.33325294  0.59218036
   0.33630273  0.33325301  0.59216826
   0.66677153  0.33327809  0.59246519
   0.97234826  0.64993311  0.58891213
   0.36108995  0.64976807  0.58885264
   0.66676687  0.66625658  0.59234302
   0.16539208  0.15148783  0.71689059
   0.16651203  0.86095950  0.63000695
   0.16654925  0.80572774  0.63001043
   0.16540292  0.51514414  0.71689841
   0.16013223  0.83340187  0.70973600
   0.15682298  0.83337139  0.80647446
   0.50326472  0.16706679  0.70743760
   0.49809625  0.16682620  0.80862707
   0.50329343  0.49957037  0.70732022
   0.49806168  0.49980545  0.80876824
   0.50592776  0.83337546  0.70426481
   0.51012419  0.83333977  0.81173507
Direct configuration=     8
   0.16666667  0.16666667  0.40785113
   0.50000000  0.16666667  0.40785113
   0.83333333  0.16666667  0.40785113
   0.16666667  0.50000000  0.40785113
   0.50000000  0.50000000  0.40785113
   0.83333333  0.50000000  0.40785113
   0.16666667  0.83333333  0.40785113
   0.50000000  0.83333333  0.40785113
   0.83333333  0.83333333  0.40785113
   0.00000000  0.00000000  0.46928371
   0.33333333  0.00000000  0.46928371
   0.66666667  0.00000000  0.46928371
   0.00000000  0.33333333  0.46928371
   0.33333333  0.33333333  0.46928371
   0.66666667  0.33333333  0.46928371
   0.00000000  0.66666667  0.46928371
   0.33333333  0.66666667  0.46928371
   0.66666667  0.66666667  0.46928371
   0.16671088  0.16692012  0.53066061
   0.49977093  0.16702105  0.53117441
   0.83352141  0.16701945  0.53117476
   0.16671755  0.49977274  0.53066455
   0.49977014  0.49967085  0.53118363
   0.83351516  0.49966962  0.53117919
   0.16670461  0.83330477  0.53067595
   0.50007369  0.83330045  0.53118380
   0.83322761  0.83330645  0.53118173
   0.99138414  0.00522223  0.59132022
   0.34188398  0.00526124  0.59128778
   0.66678998  0.00010396  0.59234439
   0.99690697  0.33326734  0.59204013
   0.33636306  0.33328677  0.59202752
   0.66675145  0.33329419  0.59227018
   0.99138577  0.66151296  0.59131863
   0.34192249  0.66143401  0.59128763
   0.66675870  0.66659610  0.59234535
   0.16561309  0.15034626  0.71649088
   0.16667698  0.89978287  0.62418378
   0.16670946  0.76690420  0.62418459
   0.16563776  0.51632368  0.71649223
   0.16188525  0.83336835  0.73068692
   0.15999644  0.83335232  0.78539603
   0.50195403  0.16669939  0.73005805
   0.49918246  0.16677274  0.78602965
   0.50196280  0.49993574  0.73002624
   0.49917180  0.49987633  0.78607236
   0.50434294  0.83336538  0.72912963
   0.50669051  0.83333798  0.78689204
Direct configuration=     9
   0.16666667  0.16666667  0.40785113
   0.50000000  0.16666667  0.40785113
   0.83333333  0.16666667  0.40785113
   0.16666667  0.50000000  0.40785113
   0.50000000  0.50000000  0.40785113
   0.83333333  0.50000000  0.40785113
   0.16666667  0.83333333  0.40785113
   0.50000000  0.83333333  0.40785113
   0.83333333  0.83333333  0.40785113
   0.00000000  0.00000000  0.46928371
   0.33333333  0.00000000  0.46928371
   0.66666667  0.00000000  0.46928371
   0.00000000  0.33333333  0.46928371
   0.33333333  0.33333333  0.46928371
   0.66666667  0.33333333  0.46928371
   0.00000000  0.66666667  0.46928371
   0.33333333  0.66666667  0.46928371
   0.66666667  0.66666667  0.46928371
   0.16670977  0.16673697  0.53066319
   0.49976358  0.16707260  0.53114444
   0.83352914  0.16707167  0.53114548
   0.16671634  0.49995340  0.53066664
   0.49976312  0.49961973  0.53115361
   0.83352291  0.49961623  0.53114930
   0.16670492  0.83330624  0.53080916
   0.49993372  0.83330120  0.53118204
   0.83336714  0.83330773  0.53118080
   0.99480073  0.00313850  0.59175119
   0.33844945  0.00316743  0.59172424
   0.66678659  0.00004040  0.59234481
   0.99690399  0.33326993  0.59201497
   0.33637389  0.33329283  0.59200227
   0.66674785  0.33329708  0.59223519
   0.99480171  0.66359076  0.59175043
   0.33848323  0.66352725  0.59172454
   0.66675724  0.66665702  0.59234577
   0.16565275  0.15014142  0.71641916
   0.16670658  0.90674903  0.62313892
   0.16673821  0.75993801  0.62313925
   0.16567989  0.51653533  0.71641935
   0.16219980  0.83336234  0.73444619
   0.16056586  0.83334890  0.78161388
   0.50171885  0.16663346  0.73411688
   0.49937737  0.16676315  0.78197495
   0.50172404  0.50000130  0.73410043
   0.49937099  0.49988905  0.78199999
   0.50405857  0.83336357  0.73359117
   0.50607439  0.83333766  0.78243440
Direct configuration=    10
   0.16666667  0.16666667  0.40785113
   0.50000000  0.16666667  0.40785113
   0.83333333  0.16666667  0.40785113
   0.16666667  0.50000000  0.40785113
   0.50000000  0.50000000  0.40785113
   0.83333333  0.50000000  0.40785113
   0.16666667  0.83333333  0.40785113
   0.50000000  0.83333333  0.40785113
   0.83333333  0.83333333  0.40785113
   0.00000000  0.00000000  0.46928371
   0.33333333  0.00000000  0.46928371
   0.66666667  0.00000000  0.46928371
   0.00000000  0.33333333  0.46928371
   0.33333333  0.33333333  0.46928371
   0.66666667  0.33333333  0.46928371
   0.00000000  0.66666667  0.46928371
   0.33333333  0.66666667  0.46928371
   0.66666667  0.66666667  0.46928371
   0.16670889  0.16659206  0.53066524
   0.49975777  0.16711339  0.53112073
   0.83353526  0.16711299  0.53112232
   0.16671538  0.50009632  0.53066830
   0.49975758  0.49957928  0.53112986
   0.83352904  0.49957399  0.53112564
   0.16670517  0.83330741  0.53091456
   0.49982297  0.83330180  0.53118064
   0.83347753  0.83330875  0.53118006
   0.99750391  0.00148988  0.59209217
   0.33573207  0.00151083  0.59206956
   0.66678391  0.99999012  0.59234515
   0.99690164  0.33327197  0.59199506
   0.33638245  0.33329763  0.59198229
   0.66674500  0.33329936  0.59220751
   0.99750437  0.66523469  0.59209207
   0.33576212  0.66518341  0.59207022
   0.66675608  0.66670522  0.59234610
   0.16568413  0.14997936  0.71636242
   0.16672999  0.91226059  0.62231223
   0.16676095  0.75442643  0.62231219
   0.16571323  0.51670278  0.71636169
   0.16244867  0.83335758  0.73742049
   0.16101638  0.83334620  0.77862148
   0.50153277  0.16658130  0.73732819
   0.49953157  0.16675556  0.77876690
   0.50153514  0.50005317  0.73732389
   0.49952859  0.49989911  0.77877797
   0.50383358  0.83336214  0.73712110
   0.50558693  0.83333741  0.77890756
Direct configuration=    11
   0.16666667  0.16666667  0.40785113
   0.50000000  0.16666667  0.40785113
   0.83333333  0.16666667  0.40785113
   0.16666667  0.50000000  0.40785113
   0.50000000  0.50000000  0.40785113
   0.83333333  0.50000000  0.40785113
   0.16666667  0.83333333  0.40785113
   0.50000000  0.83333333  0.40785113
   0.83333333  0.83333333  0.40785113
   0.00000000  0.00000000  0.46928371
   0.33333333  0.00000000  0.46928371
   0.66666667  0.00000000  0.46928371
   0.00000000  0.33333333  0.46928371
   0.33333333  0.33333333  0.46928371
   0.66666667  0.33333333  0.46928371
   0.00000000  0.66666667  0.46928371
   0.33333333  0.66666667  0.46928371
   0.66666667  0.66666667  0.46928371
   0.16670845  0.16651961  0.53066626
   0.49975487  0.16713378  0.53110888
   0.83353831  0.16713365  0.53111074
   0.16671490  0.50016779  0.53066913
   0.49975480  0.49955906  0.53111799
   0.83353210  0.49955287  0.53111382
   0.16670530  0.83330799  0.53096726
   0.49976760  0.83330210  0.53117994
   0.83353273  0.83330926  0.53117969
   0.99885550  0.00066557  0.59226266
   0.33437339  0.00068253  0.59224222
   0.66678257  0.99996497  0.59234531
   0.99690046  0.33327300  0.59198511
   0.33638674  0.33330002  0.59197230
   0.66674357  0.33330051  0.59219367
   0.99885570  0.66605666  0.59226289
   0.33440156  0.66601149  0.59224306
   0.66675550  0.66672932  0.59234626
   0.16569981  0.14989833  0.71633404
   0.16674170  0.91501636  0.62189889
   0.16677233  0.75167064  0.62189866
   0.16572990  0.51678651  0.71633286
   0.16257310  0.83335520  0.73890764
   0.16124164  0.83334484  0.77712528
   0.50143974  0.16655522  0.73893385
   0.49960867  0.16675177  0.77716288
   0.50144069  0.50007911  0.73893561
   0.49960739  0.49990415  0.77716696
   0.50372109  0.83336142  0.73888607
   0.50534320  0.83333728  0.77714414
Direct configuration=    12
   0.16666667  0.16666667  0.40785113
   0.50000000  0.16666667  0.40785113
   0.83333333  0.16666667  0.40785113
   0.16666667  0.50000000  0.40785113
   0.50000000  0.50000000  0.40785113
   0.83333333  0.50000000  0.40785113
   0.16666667  0.83333333  0.40785113
   0.50000000  0.83333333  0.40785113
   0.83333333  0.83333333  0.40785113
   0.00000000  0.00000000  0.46928371
   0.33333333  0.00000000  0.46928371
   0.66666667  0.00000000  0.46928371
   0.00000000  0.33333333  0.46928371
   0.33333333  0.33333333  0.46928371
   0.66666667  0.33333333  0.46928371
   0.00000000  0.66666667  0.46928371
   0.33333333  0.66666667  0.46928371
   0.66666667  0.66666667  0.46928371
   0.16670862  0.16654692  0.53066587
   0.49975596  0.16712609  0.53111335
   0.83353716  0.16712586  0.53111510
   0.16671508  0.50014084  0.53066882
   0.49975585  0.49956668  0.53112246
   0.83353095  0.49956083  0.53111828
   0.16670525  0.83330777  0.53094739
   0.49978848  0.83330198  0.53118021
   0.83351192  0.83330907  0.53117983
   0.99834590  0.00097637  0.59219837
   0.33488567  0.00099484  0.59217712
   0.66678307  0.99997445  0.59234525
   0.99690090  0.33327261  0.59198886
   0.33638512  0.33329912  0.59197607
   0.66674411  0.33330007  0.59219889
   0.99834619  0.66574674  0.59219849
   0.33491455  0.66569927  0.59217789
   0.66675572  0.66672023  0.59234620
   0.16569390  0.14992888  0.71634474
   0.16673729  0.91397732  0.62205474
   0.16676804  0.75270968  0.62205457
   0.16572362  0.51675494  0.71634373
   0.16252619  0.83335610  0.73834692
   0.16115670  0.83334535  0.77768941
   0.50147482  0.16656506  0.73832845
   0.49957960  0.16675320  0.77776766
   0.50147630  0.50006933  0.73832793
   0.49957768  0.49990225  0.77777438
   0.50376350  0.83336169  0.73822061
   0.50543510  0.83333733  0.77780902
Direct configuration=    13
   0.16666667  0.16666667  0.40785113
   0.50000000  0.16666667  0.40785113
   0.83333333  0.16666667  0.40785113
   0.16666667  0.50000000  0.40785113
   0.50000000  0.50000000  0.40785113
   0.83333333  0.50000000  0.40785113
   0.16666667  0.83333333  0.40785113
   0.50000000  0.83333333  0.40785113
   0.83333333  0.83333333  0.40785113
   0.00000000  0.00000000  0.46928371
   0.33333333  0.00000000  0.46928371
   0.66666667  0.00000000  0.46928371
   0.00000000  0.33333333  0.46928371
   0.33333333  0.33333333  0.46928371
   0.66666667  0.33333333  0.46928371
   0.00000000  0.66666667  0.46928371
   0.33333333  0.66666667  0.46928371
   0.66666667  0.66666667  0.46928371
   0.16670859  0.16654220  0.53066594
   0.49975577  0.16712742  0.53111257
   0.83353736  0.16712721  0.53111435
   0.16671505  0.50014550  0.53066887
   0.49975567  0.49956537  0.53112169
   0.83353114  0.49955945  0.53111751
   0.16670526  0.83330781  0.53095082
   0.49978487  0.83330200  0.53118016
   0.83351552  0.83330910  0.53117980
   0.99843398  0.00092264  0.59220949
   0.33479712  0.00094085  0.59218837
   0.66678299  0.99997281  0.59234526
   0.99690082  0.33327268  0.59198821
   0.33638540  0.33329927  0.59197542
   0.66674402  0.33330015  0.59219798
   0.99843427  0.66580031  0.59220962
   0.33482588  0.66575324  0.59218916
   0.66675568  0.66672180  0.59234621
   0.16569492  0.14992360  0.71634289
   0.16673805  0.91415693  0.62202780
   0.16676878  0.75253008  0.62202762
   0.16572470  0.51676040  0.71634185
   0.16253430  0.83335595  0.73844384
   0.16117138  0.83334527  0.77759189
   0.50146875  0.16656336  0.73843310
   0.49958463  0.16675295  0.77766312
   0.50147015  0.50007102  0.73843297
   0.49958281  0.49990258  0.77766938
   0.50375617  0.83336164  0.73833564
   0.50541921  0.83333732  0.77769410
Direct configuration=    14
   0.16666667  0.16666667  0.40785113
   0.50000000  0.16666667  0.40785113
   0.83333333  0.16666667  0.40785113
   0.16666667  0.50000000  0.40785113
   0.50000000  0.50000000  0.40785113
   0.83333333  0.50000000  0.40785113
   0.16666667  0.83333333  0.40785113
   0.50000000  0.83333333  0.40785113
   0.83333333  0.83333333  0.40785113
   0.00000000  0.00000000  0.46928371
   0.33333333  0.00000000  0.46928371
   0.66666667  0.00000000  0.46928371
   0.00000000  0.33333333  0.46928371
   0.33333333  0.33333333  0.46928371
   0.66666667  0.33333333  0.46928371
   0.00000000  0.66666667  0.46928371
   0.33333333  0.66666667  0.46928371
   0.66666667  0.66666667  0.46928371
   0.16671854  0.16771659  0.53066961
   0.49986190  0.16681351  0.53128977
   0.83343811  0.16680687  0.53128737
   0.16672535  0.49898145  0.53067602
   0.49986008  0.49987296  0.53129857
   0.83343319  0.49988305  0.53129430
   0.16670843  0.83329571  0.53011618
   0.50073597  0.83329636  0.53116677
   0.83257713  0.83329966  0.53116138
   0.97952661  0.01337119  0.58988814
   0.35370289  0.01342370  0.58984275
   0.66680925  0.00036534  0.59233762
   0.99708418  0.33325433  0.59217150
   0.33615803  0.33325601  0.59215513
   0.66677083  0.33327969  0.59244063
   0.97955723  0.65343624  0.58988931
   0.35373860  0.65334229  0.58984538
   0.66677025  0.66634451  0.59233862
   0.16575570  0.15321605  0.71604569
   0.16656767  0.92403824  0.62860492
   0.16664420  0.74259543  0.62860418
   0.16577464  0.51340704  0.71605235
   0.15997176  0.83338001  0.73798844
   0.15789202  0.83340148  0.77823262
   0.50125066  0.16704219  0.73844743
   0.49976707  0.16672575  0.77762856
   0.50123914  0.49956662  0.73847632
   0.49973246  0.49991938  0.77760304
   0.50648148  0.83337771  0.73907762
   0.50864794  0.83334325  0.77692812
Direct configuration=    15
   0.16666667  0.16666667  0.40785113
   0.50000000  0.16666667  0.40785113
   0.83333333  0.16666667  0.40785113
   0.16666667  0.50000000  0.40785113
   0.50000000  0.50000000  0.40785113
   0.83333333  0.50000000  0.40785113
   0.16666667  0.83333333  0.40785113
   0.50000000  0.83333333  0.40785113
   0.83333333  0.83333333  0.40785113
   0.00000000  0.00000000  0.46928371
   0.33333333  0.00000000  0.46928371
   0.66666667  0.00000000  0.46928371
   0.00000000  0.33333333  0.46928371
   0.33333333  0.33333333  0.46928371
   0.66666667  0.33333333  0.46928371
   0.00000000  0.66666667  0.46928371
   0.33333333  0.66666667  0.46928371
   0.66666667  0.66666667  0.46928371
   0.16671555  0.16736363  0.53066851
   0.49983001  0.16690785  0.53123652
   0.83346794  0.16690315  0.53123537
   0.16672225  0.49933130  0.53067387
   0.49982870  0.49978051  0.53124541
   0.83346263  0.49978579  0.53124116
   0.16670747  0.83329935  0.53036703
   0.50045012  0.83329805  0.53117079
   0.83285916  0.83330250  0.53116692
   0.98520914  0.00962983  0.59058581
   0.34802084  0.00967203  0.59054772
   0.66680136  0.00024737  0.59233992
   0.99702907  0.33325984  0.59211641
   0.33622636  0.33326901  0.59210112
   0.66676277  0.33328584  0.59236770
   0.98523065  0.65715221  0.59058667
   0.34805446  0.65707234  0.59054980
   0.66676587  0.66645791  0.59234090
   0.16573743  0.15222652  0.71613501
   0.16661888  0.92106845  0.62662820
   0.16668164  0.74558124  0.62662762
   0.16575963  0.51441488  0.71613935
   0.16074192  0.83337278  0.73812531
   0.15887762  0.83338458  0.77804005
   0.50131621  0.16689828  0.73844312
   0.49971224  0.16673393  0.77763895
   0.50130857  0.49971822  0.73846329
   0.49968749  0.49991433  0.77762298
   0.50566240  0.83337288  0.73885462
   0.50767756  0.83334147  0.77715833
Direct configuration=    16
   0.16666667  0.16666667  0.40785113
   0.50000000  0.16666667  0.40785113
   0.83333333  0.16666667  0.40785113
   0.16666667  0.50000000  0.40785113
   0.50000000  0.50000000  0.40785113
   0.83333333  0.50000000  0.40785113
   0.16666667  0.83333333  0.40785113
   0.50000000  0.83333333  0.40785113
   0.83333333  0.83333333  0.40785113
   0.00000000  0.00000000  0.46928371
   0.33333333  0.00000000  0.46928371
   0.66666667  0.00000000  0.46928371
   0.00000000  0.33333333  0.46928371
   0.33333333  0.33333333  0.46928371
   0.66666667  0.33333333  0.46928371
   0.00000000  0.66666667  0.46928371
   0.33333333  0.66666667  0.46928371
   0.66666667  0.66666667  0.46928371
   0.16671631  0.16838128  0.53068770
   0.50057231  0.16737827  0.53111662
   0.83273501  0.16736477  0.53111358
   0.16672631  0.49831766  0.53069744
   0.50056835  0.49931412  0.53112457
   0.83273327  0.49933990  0.53112289
   0.16670931  0.83329341  0.53016897
   0.50160191  0.83329823  0.53098130
   0.83172083  0.83330152  0.53097218
   0.97983554  0.01384776  0.59036223
   0.35336772  0.01385370  0.59032880
   0.66680346  0.00051064  0.59240107
   0.99741681  0.33324913  0.59236364
   0.33578164  0.33323382  0.59234653
   0.66678252  0.33327012  0.59265816
   0.97984859  0.65288567  0.59036194
   0.35339985  0.65285066  0.59033111
   0.66676367  0.66622565  0.59240236
   0.16580976  0.15631714  0.71573838
   0.16655491  0.91204346  0.62966228
   0.16663458  0.75460738  0.62966780
   0.16577928  0.51026075  0.71575418
   0.15775955  0.83340609  0.74122817
   0.15555904  0.83340966  0.77523667
   0.50102018  0.16750427  0.73915878
   0.49991765  0.16661635  0.77690177
   0.50101489  0.49909087  0.73905330
   0.49986621  0.50003957  0.77699960
   0.50853066  0.83340226  0.73626790
   0.51136481  0.83337208  0.77973006
Direct configuration=    17