  66  66   1   0
  0.5034361E+02  0.1028133E-08  0.1028133E-08  0.3629601E-08  0.5000000E-15
   1.0000000000000000E-004
  CAR 
 50% Ag CO adsorption                    
      9.61199326    -76.27477830  301     -1.81027149      1.00000000
    -76.275  0.0000E+00  0.0000E+00
    -75.988  0.0000E+00  0.0000E+00
    -75.702  0.0000E+00  0.0000E+00
    -75.416  0.0000E+00  0.0000E+00
    -75.130  0.0000E+00  0.0000E+00
    -74.843  0.0000E+00  0.0000E+00
    -74.557  0.0000E+00  0.0000E+00
    -74.271  0.0000E+00  0.0000E+00
    -73.984  0.0000E+00  0.0000E+00
    -73.698  0.0000E+00  0.0000E+00
    -73.412 -0.5815E-48 -0.1665E-48
    -73.126 -0.8985E-26 -0.2572E-26
    -72.839 -0.8646E-11 -0.2475E-11
    -72.553 -0.3609E-03 -0.1033E-03
    -72.267  0.6114E-01  0.1740E-01
    -71.980  0.1463E+00  0.5929E-01
    -71.694  0.1033E+01  0.3552E+00
    -71.408  0.2367E+01  0.1033E+01
    -71.122  0.3045E+00  0.1120E+01
    -70.835 -0.2206E-03  0.1120E+01
    -70.549  0.0000E+00  0.1120E+01
    -70.263  0.0000E+00  0.1120E+01
    -69.976  0.0000E+00  0.1120E+01
    -69.690  0.0000E+00  0.1120E+01
    -69.404  0.0000E+00  0.1120E+01
    -69.118  0.0000E+00  0.1120E+01
    -68.831  0.0000E+00  0.1120E+01
    -68.545  0.0000E+00  0.1120E+01
    -68.259  0.0000E+00  0.1120E+01
    -67.972  0.0000E+00  0.1120E+01
    -67.686  0.0000E+00  0.1120E+01
    -67.400  0.0000E+00  0.1120E+01
    -67.114  0.0000E+00  0.1120E+01
    -66.827  0.0000E+00  0.1120E+01
    -66.541  0.0000E+00  0.1120E+01
    -66.255  0.0000E+00  0.1120E+01
    -65.968  0.0000E+00  0.1120E+01
    -65.682  0.0000E+00  0.1120E+01
    -65.396  0.0000E+00  0.1120E+01
    -65.109  0.0000E+00  0.1120E+01
    -64.823  0.0000E+00  0.1120E+01
    -64.537  0.0000E+00  0.1120E+01
    -64.251  0.0000E+00  0.1120E+01
    -63.964  0.0000E+00  0.1120E+01
    -63.678  0.0000E+00  0.1120E+01
    -63.392  0.0000E+00  0.1120E+01
    -63.105  0.0000E+00  0.1120E+01
    -62.819  0.0000E+00  0.1120E+01
    -62.533  0.0000E+00  0.1120E+01
    -62.247  0.0000E+00  0.1120E+01
    -61.960  0.0000E+00  0.1120E+01
    -61.674  0.0000E+00  0.1120E+01
    -61.388  0.0000E+00  0.1120E+01
    -61.101  0.0000E+00  0.1120E+01
    -60.815  0.0000E+00  0.1120E+01
    -60.529  0.0000E+00  0.1120E+01
    -60.243  0.0000E+00  0.1120E+01
    -59.956  0.0000E+00  0.1120E+01
    -59.670  0.0000E+00  0.1120E+01
    -59.384  0.0000E+00  0.1120E+01
    -59.097  0.0000E+00  0.1120E+01
    -58.811  0.0000E+00  0.1120E+01
    -58.525  0.0000E+00  0.1120E+01
    -58.239  0.0000E+00  0.1120E+01
    -57.952  0.0000E+00  0.1120E+01
    -57.666  0.0000E+00  0.1120E+01
    -57.380  0.0000E+00  0.1120E+01
    -57.093  0.0000E+00  0.1120E+01
    -56.807  0.0000E+00  0.1120E+01
    -56.521  0.0000E+00  0.1120E+01
    -56.235  0.0000E+00  0.1120E+01
    -55.948  0.0000E+00  0.1120E+01
    -55.662  0.0000E+00  0.1120E+01
    -55.376  0.0000E+00  0.1120E+01
    -55.089  0.0000E+00  0.1120E+01
    -54.803  0.0000E+00  0.1120E+01
    -54.517  0.0000E+00  0.1120E+01
    -54.231  0.0000E+00  0.1120E+01
    -53.944  0.0000E+00  0.1120E+01
    -53.658  0.0000E+00  0.1120E+01
    -53.372  0.0000E+00  0.1120E+01
    -53.085  0.0000E+00  0.1120E+01
    -52.799  0.0000E+00  0.1120E+01
    -52.513  0.0000E+00  0.1120E+01
    -52.226  0.0000E+00  0.1120E+01
    -51.940  0.0000E+00  0.1120E+01
    -51.654  0.0000E+00  0.1120E+01
    -51.368  0.0000E+00  0.1120E+01
    -51.081  0.0000E+00  0.1120E+01
    -50.795  0.0000E+00  0.1120E+01
    -50.509  0.0000E+00  0.1120E+01
    -50.222  0.0000E+00  0.1120E+01
    -49.936  0.0000E+00  0.1120E+01
    -49.650  0.0000E+00  0.1120E+01
    -49.364  0.0000E+00  0.1120E+01
    -49.077  0.0000E+00  0.1120E+01
    -48.791  0.0000E+00  0.1120E+01
    -48.505  0.0000E+00  0.1120E+01
    -48.218  0.0000E+00  0.1120E+01
    -47.932  0.0000E+00  0.1120E+01
    -47.646  0.0000E+00  0.1120E+01
    -47.360  0.0000E+00  0.1120E+01
    -47.073  0.0000E+00  0.1120E+01
    -46.787  0.0000E+00  0.1120E+01
    -46.501  0.0000E+00  0.1120E+01
    -46.214  0.0000E+00  0.1120E+01
    -45.928  0.0000E+00  0.1120E+01
    -45.642  0.0000E+00  0.1120E+01
    -45.356  0.0000E+00  0.1120E+01
    -45.069  0.0000E+00  0.1120E+01
    -44.783  0.0000E+00  0.1120E+01
    -44.497  0.0000E+00  0.1120E+01
    -44.210  0.0000E+00  0.1120E+01
    -43.924  0.0000E+00  0.1120E+01
    -43.638  0.0000E+00  0.1120E+01
    -43.352  0.0000E+00  0.1120E+01
    -43.065  0.0000E+00  0.1120E+01
    -42.779  0.0000E+00  0.1120E+01
    -42.493  0.0000E+00  0.1120E+01
    -42.206  0.0000E+00  0.1120E+01
    -41.920  0.0000E+00  0.1120E+01
    -41.634  0.0000E+00  0.1120E+01
    -41.347  0.0000E+00  0.1120E+01
    -41.061  0.0000E+00  0.1120E+01
    -40.775  0.0000E+00  0.1120E+01
    -40.489  0.0000E+00  0.1120E+01
    -40.202  0.0000E+00  0.1120E+01
    -39.916  0.0000E+00  0.1120E+01
    -39.630  0.0000E+00  0.1120E+01
    -39.343  0.0000E+00  0.1120E+01
    -39.057  0.0000E+00  0.1120E+01
    -38.771  0.0000E+00  0.1120E+01
    -38.485  0.0000E+00  0.1120E+01
    -38.198  0.0000E+00  0.1120E+01
    -37.912  0.0000E+00  0.1120E+01
    -37.626  0.0000E+00  0.1120E+01
    -37.339  0.0000E+00  0.1120E+01
    -37.053  0.0000E+00  0.1120E+01
    -36.767  0.0000E+00  0.1120E+01
    -36.481  0.0000E+00  0.1120E+01
    -36.194  0.0000E+00  0.1120E+01
    -35.908  0.0000E+00  0.1120E+01
    -35.622  0.0000E+00  0.1120E+01
    -35.335  0.0000E+00  0.1120E+01
    -35.049  0.0000E+00  0.1120E+01
    -34.763  0.0000E+00  0.1120E+01
    -34.477  0.0000E+00  0.1120E+01
    -34.190  0.0000E+00  0.1120E+01
    -33.904  0.0000E+00  0.1120E+01
    -33.618  0.0000E+00  0.1120E+01
    -33.331  0.0000E+00  0.1120E+01
    -33.045  0.0000E+00  0.1120E+01
    -32.759  0.0000E+00  0.1120E+01
    -32.473  0.0000E+00  0.1120E+01
    -32.186  0.0000E+00  0.1120E+01
    -31.900  0.0000E+00  0.1120E+01
    -31.614  0.0000E+00  0.1120E+01
    -31.327  0.0000E+00  0.1120E+01
    -31.041  0.0000E+00  0.1120E+01
    -30.755  0.0000E+00  0.1120E+01
    -30.469  0.0000E+00  0.1120E+01
    -30.182  0.0000E+00  0.1120E+01
    -29.896  0.0000E+00  0.1120E+01
    -29.610  0.0000E+00  0.1120E+01
    -29.323  0.0000E+00  0.1120E+01
    -29.037  0.0000E+00  0.1120E+01
    -28.751  0.0000E+00  0.1120E+01
    -28.464  0.0000E+00  0.1120E+01
    -28.178  0.0000E+00  0.1120E+01
    -27.892  0.0000E+00  0.1120E+01
    -27.606  0.0000E+00  0.1120E+01
    -27.319  0.0000E+00  0.1120E+01
    -27.033  0.0000E+00  0.1120E+01
    -26.747  0.0000E+00  0.1120E+01
    -26.460 -0.3823E-49  0.1120E+01
    -26.174 -0.1253E-26  0.1120E+01
    -25.888 -0.2574E-11  0.1120E+01
    -25.602 -0.2163E-03  0.1120E+01
    -25.315  0.2381E-01  0.1127E+01
    -25.029 -0.3060E-03  0.1127E+01
    -24.743 -0.1516E-07  0.1127E+01
    -24.456  0.0000E+00  0.1127E+01
    -24.170  0.0000E+00  0.1127E+01
    -23.884  0.0000E+00  0.1127E+01
    -23.598  0.0000E+00  0.1127E+01
    -23.311  0.0000E+00  0.1127E+01
    -23.025  0.0000E+00  0.1127E+01
    -22.739  0.0000E+00  0.1127E+01
    -22.452  0.0000E+00  0.1127E+01
    -22.166  0.0000E+00  0.1127E+01
    -21.880  0.0000E+00  0.1127E+01
    -21.594  0.0000E+00  0.1127E+01
    -21.307  0.0000E+00  0.1127E+01
    -21.021  0.0000E+00  0.1127E+01
    -20.735  0.0000E+00  0.1127E+01
    -20.448  0.0000E+00  0.1127E+01
    -20.162  0.0000E+00  0.1127E+01
    -19.876  0.0000E+00  0.1127E+01
    -19.590  0.0000E+00  0.1127E+01
    -19.303  0.0000E+00  0.1127E+01
    -19.017  0.0000E+00  0.1127E+01
    -18.731  0.0000E+00  0.1127E+01
    -18.444  0.0000E+00  0.1127E+01
    -18.158  0.0000E+00  0.1127E+01
    -17.872  0.0000E+00  0.1127E+01
    -17.585  0.0000E+00  0.1127E+01
    -17.299  0.0000E+00  0.1127E+01
    -17.013  0.0000E+00  0.1127E+01
    -16.727  0.0000E+00  0.1127E+01
    -16.440  0.0000E+00  0.1127E+01
    -16.154  0.0000E+00  0.1127E+01
    -15.868  0.0000E+00  0.1127E+01
    -15.581  0.0000E+00  0.1127E+01
    -15.295  0.0000E+00  0.1127E+01
    -15.009  0.0000E+00  0.1127E+01
    -14.723  0.0000E+00  0.1127E+01
    -14.436  0.0000E+00  0.1127E+01
    -14.150  0.0000E+00  0.1127E+01
    -13.864  0.0000E+00  0.1127E+01
    -13.577  0.0000E+00  0.1127E+01
    -13.291 -0.4741E-34  0.1127E+01
    -13.005 -0.4284E-16  0.1127E+01
    -12.719 -0.2139E-05  0.1127E+01
    -12.432  0.8909E-02  0.1129E+01
    -12.146  0.1439E-01  0.1133E+01
    -11.860 -0.9442E-05  0.1133E+01
    -11.573 -0.2459E-33  0.1133E+01
    -11.287 -0.6078E-16  0.1133E+01
    -11.001 -0.7940E-06  0.1133E+01
    -10.715  0.1350E-02  0.1134E+01
    -10.428  0.1687E-01  0.1139E+01
    -10.142  0.4902E-02  0.1140E+01
     -9.856  0.2428E-01  0.1147E+01
     -9.569  0.6596E-02  0.1149E+01
     -9.283  0.3589E-01  0.1159E+01
     -8.997  0.3504E-01  0.1169E+01
     -8.711  0.6280E-01  0.1187E+01
     -8.424  0.4581E-01  0.1200E+01
     -8.138  0.1013E+00  0.1229E+01
     -7.852  0.9273E-01  0.1256E+01
     -7.565  0.1292E+00  0.1293E+01
     -7.279  0.1272E+00  0.1329E+01
     -6.993  0.1219E+00  0.1364E+01
     -6.706  0.1779E+00  0.1415E+01
     -6.420  0.2028E+00  0.1473E+01
     -6.134  0.3286E+00  0.1567E+01
     -5.848  0.4393E+00  0.1693E+01
     -5.561  0.4440E+00  0.1820E+01
     -5.275  0.4139E+00  0.1938E+01
     -4.989  0.5196E+00  0.2087E+01
     -4.702  0.6128E+00  0.2263E+01
     -4.416  0.7973E+00  0.2491E+01
     -4.130  0.6263E+00  0.2670E+01
     -3.844  0.7445E+00  0.2883E+01
     -3.557  0.7044E+00  0.3085E+01
     -3.271  0.9314E+00  0.3352E+01
     -2.985  0.1901E+00  0.3406E+01
     -2.698  0.8995E-01  0.3432E+01
     -2.412  0.8986E-01  0.3458E+01
     -2.126  0.5181E-01  0.3472E+01
     -1.840  0.9266E-01  0.3499E+01
     -1.553  0.4202E-01  0.3511E+01
     -1.267  0.9863E-01  0.3539E+01
     -0.981  0.7953E-01  0.3562E+01
     -0.694  0.3604E-01  0.3572E+01
     -0.408  0.7083E-01  0.3593E+01
     -0.122  0.7521E-01  0.3614E+01
      0.164  0.6700E-01  0.3633E+01
      0.451  0.5549E-01  0.3649E+01
      0.737  0.9074E-01  0.3675E+01
      1.023  0.4747E-01  0.3689E+01
      1.310  0.6235E-01  0.3707E+01
      1.596  0.1534E-01  0.3711E+01
      1.882  0.5738E-01  0.3727E+01
      2.168  0.5796E-01  0.3744E+01
      2.455  0.4706E-01  0.3757E+01
      2.741  0.6143E-01  0.3775E+01
      3.027  0.9861E-01  0.3803E+01
      3.314  0.8425E-01  0.3827E+01
      3.600  0.1307E+00  0.3865E+01
      3.886  0.1439E+00  0.3906E+01
      4.172  0.1270E+00  0.3942E+01
      4.459  0.1820E+00  0.3994E+01
      4.745  0.1317E+00  0.4032E+01
      5.031  0.1627E+00  0.4079E+01
      5.318  0.1504E+00  0.4122E+01
      5.604  0.2112E+00  0.4182E+01
      5.890  0.6208E-01  0.4200E+01
      6.177 -0.2771E-03  0.4200E+01
      6.463 -0.4252E-11  0.4200E+01
      6.749  0.0000E+00  0.4200E+01
      7.035  0.0000E+00  0.4200E+01
      7.322  0.0000E+00  0.4200E+01
      7.608  0.0000E+00  0.4200E+01
      7.894  0.0000E+00  0.4200E+01
      8.181  0.0000E+00  0.4200E+01
      8.467  0.0000E+00  0.4200E+01
      8.753  0.0000E+00  0.4200E+01
      9.039  0.0000E+00  0.4200E+01
      9.326  0.0000E+00  0.4200E+01
      9.612  0.0000E+00  0.4200E+01
      9.61199326    -76.27477830  301     -1.81027149      1.00000000
    -76.275  0.0000E+00  0.0000E+00  0.0000E+00  0.0000E+00  0.0000E+00  0.0000E+00  0.0000E+00  0.0000E+00  0.0000E+00
    -75.988  0.0000E+00  0.0000E+00  0.0000E+00  0.0000E+00  0.0000E+00  0.0000E+00  0.0000E+00  0.0000E+00  0.0000E+00
    -75.702  0.0000E+00  0.0000E+00  0.0000E+00  0.0000E+00  0.0000E+00  0.0000E+00  0.0000E+00  0.0000E+00  0.0000E+00
    -75.416  0.0000E+00  0.0000E+00  0.0000E+00  0.0000E+00  0.0000E+00  0.0000E+00  0.0000E+00  0.0000E+00  0.0000E+00
    -75.130  0.0000E+00  0.0000E+00  0.0000E+00  0.0000E+00  0.0000E+00  0.0000E+00  0.0000E+00  0.0000E+00  0.0000E+00
    -74.843  0.0000E+00  0.0000E+00  0.0000E+00  0.0000E+00  0.0000E+00  0.0000E+00  0.0000E+00  0.0000E+00  0.0000E+00
    -74.557  0.0000E+00  0.0000E+00  0.0000E+00  0.0000E+00  0.0000E+00  0.0000E+00  0.0000E+00  0.0000E+00  0.0000E+00
    -74.271  0.0000E+00  0.0000E+00  0.0000E+00  0.0000E+00  0.0000E+00  0.0000E+00  0.0000E+00  0.0000E+00  0.0000E+00
    -73.984  0.0000E+00  0.0000E+00  0.0000E+00  0.0000E+00  0.0000E+00  0.0000E+00  0.0000E+00  0.0000E+00  0.0000E+00
    -73.698  0.0000E+00  0.0000E+00  0.0000E+00  0.0000E+00  0.0000E+00  0.0000E+00  0.0000E+00  0.0000E+00  0.0000E+00
    -73.412 -0.1187E-56 -0.9676E-56 -0.1436E-57 -0.5664E-56 -0.3384E-56 -0.3024E-57 -0.3237E-56 -0.1472E-57 -0.2459E-56
    -73.126 -0.1833E-34 -0.1496E-33 -0.2217E-35 -0.8752E-34 -0.5231E-34 -0.4673E-35 -0.5002E-34 -0.2275E-35 -0.3798E-34
    -72.839 -0.1795E-19 -0.1443E-18 -0.2137E-20 -0.8441E-19 -0.5073E-19 -0.4508E-20 -0.4823E-19 -0.2196E-20 -0.3656E-19
    -72.553 -0.1734E-11 -0.6823E-11 -0.1106E-12 -0.4037E-11 -0.3322E-11 -0.2343E-12 -0.2330E-11 -0.1124E-12 -0.1655E-11
    -72.267  0.1731E-08  0.2834E-08  0.7202E-10  0.1059E-08  0.1740E-08  0.1631E-09  0.8383E-09  0.4268E-10  0.1276E-08
    -71.980  0.2183E-07  0.3936E-07 -0.1163E-07  0.1468E-07  0.4126E-07 -0.8410E-08  0.1386E-07  0.1182E-08  0.1635E-07
    -71.694  0.1714E-04  0.2235E-04  0.7485E-05  0.5756E-05  0.1274E-04  0.7126E-05  0.8731E-05  0.7962E-06  0.6328E-05
    -71.408  0.3375E-04  0.4578E-04  0.1281E-04  0.1875E-04  0.3878E-04  0.8930E-05  0.2198E-04  0.8192E-05  0.1316E-04
    -71.122 -0.8275E-07 -0.8709E-07 -0.6162E-07 -0.5630E-07 -0.9242E-07 -0.4996E-07 -0.5594E-07 -0.6579E-07 -0.2464E-07
    -70.835 -0.1501E-12 -0.2413E-12 -0.1313E-11 -0.1862E-12 -0.2420E-13 -0.1866E-12 -0.5437E-12 -0.2254E-12 -0.2489E-13
    -70.549  0.0000E+00  0.0000E+00  0.0000E+00  0.0000E+00  0.0000E+00  0.0000E+00  0.0000E+00  0.0000E+00  0.0000E+00
    -70.263  0.0000E+00  0.0000E+00  0.0000E+00  0.0000E+00  0.0000E+00  0.0000E+00  0.0000E+00  0.0000E+00  0.0000E+00
    -69.976  0.0000E+00  0.0000E+00  0.0000E+00  0.0000E+00  0.0000E+00  0.0000E+00  0.0000E+00  0.0000E+00  0.0000E+00
    -69.690  0.0000E+00  0.0000E+00  0.0000E+00  0.0000E+00  0.0000E+00  0.0000E+00  0.0000E+00  0.0000E+00  0.0000E+00
    -69.404  0.0000E+00  0.0000E+00  0.0000E+00  0.0000E+00  0.0000E+00  0.0000E+00  0.0000E+00  0.0000E+00  0.0000E+00
    -69.118  0.0000E+00  0.0000E+00  0.0000E+00  0.0000E+00  0.0000E+00  0.0000E+00  0.0000E+00  0.0000E+00  0.0000E+00
    -68.831  0.0000E+00  0.0000E+00  0.0000E+00  0.0000E+00  0.0000E+00  0.0000E+00  0.0000E+00  0.0000E+00  0.0000E+00
    -68.545  0.0000E+00  0.0000E+00  0.0000E+00  0.0000E+00  0.0000E+00  0.0000E+00  0.0000E+00  0.0000E+00  0.0000E+00
    -68.259  0.0000E+00  0.0000E+00  0.0000E+00  0.0000E+00  0.0000E+00  0.0000E+00  0.0000E+00  0.0000E+00  0.0000E+00
    -67.972  0.0000E+00  0.0000E+00  0.0000E+00  0.0000E+00  0.0000E+00  0.0000E+00  0.0000E+00  0.0000E+00  0.0000E+00
    -67.686  0.0000E+00  0.0000E+00  0.0000E+00  0.0000E+00  0.0000E+00  0.0000E+00  0.0000E+00  0.0000E+00  0.0000E+00
    -67.400  0.0000E+00  0.0000E+00  0.0000E+00  0.0000E+00  0.0000E+00  0.0000E+00  0.0000E+00  0.0000E+00  0.0000E+00
    -67.114  0.0000E+00  0.0000E+00  0.0000E+00  0.0000E+00  0.0000E+00  0.0000E+00  0.0000E+00  0.0000E+00  0.0000E+00
    -66.827  0.0000E+00  0.0000E+00  0.0000E+00  0.0000E+00  0.0000E+00  0.0000E+00  0.0000E+00  0.0000E+00  0.0000E+00
    -66.541  0.0000E+00  0.0000E+00  0.0000E+00  0.0000E+00  0.0000E+00  0.0000E+00  0.0000E+00  0.0000E+00  0.0000E+00
    -66.255  0.0000E+00  0.0000E+00  0.0000E+00  0.0000E+00  0.0000E+00  0.0000E+00  0.0000E+00  0.0000E+00  0.0000E+00
    -65.968  0.0000E+00  0.0000E+00  0.0000E+00  0.0000E+00  0.0000E+00  0.0000E+00  0.0000E+00  0.0000E+00  0.0000E+00
    -65.682  0.0000E+00  0.0000E+00  0.0000E+00  0.0000E+00  0.0000E+00  0.0000E+00  0.0000E+00  0.0000E+00  0.0000E+00
    -65.396  0.0000E+00  0.0000E+00  0.0000E+00  0.0000E+00  0.0000E+00  0.0000E+00  0.0000E+00  0.0000E+00  0.0000E+00
    -65.109  0.0000E+00  0.0000E+00  0.0000E+00  0.0000E+00  0.0000E+00  0.0000E+00  0.0000E+00  0.0000E+00  0.0000E+00
    -64.823  0.0000E+00  0.0000E+00  0.0000E+00  0.0000E+00  0.0000E+00  0.0000E+00  0.0000E+00  0.0000E+00  0.0000E+00
    -64.537  0.0000E+00  0.0000E+00  0.0000E+00  0.0000E+00  0.0000E+00  0.0000E+00  0.0000E+00  0.0000E+00  0.0000E+00
    -64.251  0.0000E+00  0.0000E+00  0.0000E+00  0.0000E+00  0.0000E+00  0.0000E+00  0.0000E+00  0.0000E+00  0.0000E+00
    -63.964  0.0000E+00  0.0000E+00  0.0000E+00  0.0000E+00  0.0000E+00  0.0000E+00  0.0000E+00  0.0000E+00  0.0000E+00
    -63.678  0.0000E+00  0.0000E+00  0.0000E+00  0.0000E+00  0.0000E+00  0.0000E+00  0.0000E+00  0.0000E+00  0.0000E+00
    -63.392  0.0000E+00  0.0000E+00  0.0000E+00  0.0000E+00  0.0000E+00  0.0000E+00  0.0000E+00  0.0000E+00  0.0000E+00
    -63.105  0.0000E+00  0.0000E+00  0.0000E+00  0.0000E+00  0.0000E+00  0.0000E+00  0.0000E+00  0.0000E+00  0.0000E+00
    -62.819  0.0000E+00  0.0000E+00  0.0000E+00  0.0000E+00  0.0000E+00  0.0000E+00  0.0000E+00  0.0000E+00  0.0000E+00
    -62.533  0.0000E+00  0.0000E+00  0.0000E+00  0.0000E+00  0.0000E+00  0.0000E+00  0.0000E+00  0.0000E+00  0.0000E+00
    -62.247  0.0000E+00  0.0000E+00  0.0000E+00  0.0000E+00  0.0000E+00  0.0000E+00  0.0000E+00  0.0000E+00  0.0000E+00
    -61.960  0.0000E+00  0.0000E+00  0.0000E+00  0.0000E+00  0.0000E+00  0.0000E+00  0.0000E+00  0.0000E+00  0.0000E+00
    -61.674  0.0000E+00  0.0000E+00  0.0000E+00  0.0000E+00  0.0000E+00  0.0000E+00  0.0000E+00  0.0000E+00  0.0000E+00
    -61.388  0.0000E+00  0.0000E+00  0.0000E+00  0.0000E+00  0.0000E+00  0.0000E+00  0.0000E+00  0.0000E+00  0.0000E+00
    -61.101  0.0000E+00  0.0000E+00  0.0000E+00  0.0000E+00  0.0000E+00  0.0000E+00  0.0000E+00  0.0000E+00  0.0000E+00
    -60.815  0.0000E+00  0.0000E+00  0.0000E+00  0.0000E+00  0.0000E+00  0.0000E+00  0.0000E+00  0.0000E+00  0.0000E+00
    -60.529  0.0000E+00  0.0000E+00  0.0000E+00  0.0000E+00  0.0000E+00  0.0000E+00  0.0000E+00  0.0000E+00  0.0000E+00
    -60.243  0.0000E+00  0.0000E+00  0.0000E+00  0.0000E+00  0.0000E+00  0.0000E+00  0.0000E+00  0.0000E+00  0.0000E+00
    -59.956  0.0000E+00  0.0000E+00  0.0000E+00  0.0000E+00  0.0000E+00  0.0000E+00  0.0000E+00  0.0000E+00  0.0000E+00
    -59.670  0.0000E+00  0.0000E+00  0.0000E+00  0.0000E+00  0.0000E+00  0.0000E+00  0.0000E+00  0.0000E+00  0.0000E+00
    -59.384  0.0000E+00  0.0000E+00  0.0000E+00  0.0000E+00  0.0000E+00  0.0000E+00  0.0000E+00  0.0000E+00  0.0000E+00
    -59.097  0.0000E+00  0.0000E+00  0.0000E+00  0.0000E+00  0.0000E+00  0.0000E+00  0.0000E+00  0.0000E+00  0.0000E+00
    -58.811  0.0000E+00  0.0000E+00  0.0000E+00  0.0000E+00  0.0000E+00  0.0000E+00  0.0000E+00  0.0000E+00  0.0000E+00
    -58.525  0.0000E+00  0.0000E+00  0.0000E+00  0.0000E+00  0.0000E+00  0.0000E+00  0.0000E+00  0.0000E+00  0.0000E+00
    -58.239  0.0000E+00  0.0000E+00  0.0000E+00  0.0000E+00  0.0000E+00  0.0000E+00  0.0000E+00  0.0000E+00  0.0000E+00
    -57.952  0.0000E+00  0.0000E+00  0.0000E+00  0.0000E+00  0.0000E+00  0.0000E+00  0.0000E+00  0.0000E+00  0.0000E+00
    -57.666  0.0000E+00  0.0000E+00  0.0000E+00  0.0000E+00  0.0000E+00  0.0000E+00  0.0000E+00  0.0000E+00  0.0000E+00
    -57.380  0.0000E+00  0.0000E+00  0.0000E+00  0.0000E+00  0.0000E+00  0.0000E+00  0.0000E+00  0.0000E+00  0.0000E+00
    -57.093  0.0000E+00  0.0000E+00  0.0000E+00  0.0000E+00  0.0000E+00  0.0000E+00  0.0000E+00  0.0000E+00  0.0000E+00
    -56.807  0.0000E+00  0.0000E+00  0.0000E+00  0.0000E+00  0.0000E+00  0.0000E+00  0.0000E+00  0.0000E+00  0.0000E+00
    -56.521  0.0000E+00  0.0000E+00  0.0000E+00  0.0000E+00  0.0000E+00  0.0000E+00  0.0000E+00  0.0000E+00  0.0000E+00
    -56.235  0.0000E+00  0.0000E+00  0.0000E+00  0.0000E+00  0.0000E+00  0.0000E+00  0.0000E+00  0.0000E+00  0.0000E+00
    -55.948  0.0000E+00  0.0000E+00  0.0000E+00  0.0000E+00  0.0000E+00  0.0000E+00  0.0000E+00  0.0000E+00  0.0000E+00
    -55.662  0.0000E+00  0.0000E+00  0.0000E+00  0.0000E+00  0.0000E+00  0.0000E+00  0.0000E+00  0.0000E+00  0.0000E+00
    -55.376  0.0000E+00  0.0000E+00  0.0000E+00  0.0000E+00  0.0000E+00  0.0000E+00  0.0000E+00  0.0000E+00  0.0000E+00
    -55.089  0.0000E+00  0.0000E+00  0.0000E+00  0.0000E+00  0.0000E+00  0.0000E+00  0.0000E+00  0.0000E+00  0.0000E+00
    -54.803  0.0000E+00  0.0000E+00  0.0000E+00  0.0000E+00  0.0000E+00  0.0000E+00  0.0000E+00  0.0000E+00  0.0000E+00
    -54.517  0.0000E+00  0.0000E+00  0.0000E+00  0.0000E+00  0.0000E+00  0.0000E+00  0.0000E+00  0.0000E+00  0.0000E+00
    -54.231  0.0000E+00  0.0000E+00  0.0000E+00  0.0000E+00  0.0000E+00  0.0000E+00  0.0000E+00  0.0000E+00  0.0000E+00
    -53.944  0.0000E+00  0.0000E+00  0.0000E+00  0.0000E+00  0.0000E+00  0.0000E+00  0.0000E+00  0.0000E+00  0.0000E+00
    -53.658  0.0000E+00  0.0000E+00  0.0000E+00  0.0000E+00  0.0000E+00  0.0000E+00  0.0000E+00  0.0000E+00  0.0000E+00
    -53.372  0.0000E+00  0.0000E+00  0.0000E+00  0.0000E+00  0.0000E+00  0.0000E+00  0.0000E+00  0.0000E+00  0.0000E+00
    -53.085  0.0000E+00  0.0000E+00  0.0000E+00  0.0000E+00  0.0000E+00  0.0000E+00  0.0000E+00  0.0000E+00  0.0000E+00
    -52.799  0.0000E+00  0.0000E+00  0.0000E+00  0.0000E+00  0.0000E+00  0.0000E+00  0.0000E+00  0.0000E+00  0.0000E+00
    -52.513  0.0000E+00  0.0000E+00  0.0000E+00  0.0000E+00  0.0000E+00  0.0000E+00  0.0000E+00  0.0000E+00  0.0000E+00
    -52.226  0.0000E+00  0.0000E+00  0.0000E+00  0.0000E+00  0.0000E+00  0.0000E+00  0.0000E+00  0.0000E+00  0.0000E+00
    -51.940  0.0000E+00  0.0000E+00  0.0000E+00  0.0000E+00  0.0000E+00  0.0000E+00  0.0000E+00  0.0000E+00  0.0000E+00
    -51.654  0.0000E+00  0.0000E+00  0.0000E+00  0.0000E+00  0.0000E+00  0.0000E+00  0.0000E+00  0.0000E+00  0.0000E+00
    -51.368  0.0000E+00  0.0000E+00  0.0000E+00  0.0000E+00  0.0000E+00  0.0000E+00  0.0000E+00  0.0000E+00  0.0000E+00
    -51.081  0.0000E+00  0.0000E+00  0.0000E+00  0.0000E+00  0.0000E+00  0.0000E+00  0.0000E+00  0.0000E+00  0.0000E+00
    -50.795  0.0000E+00  0.0000E+00  0.0000E+00  0.0000E+00  0.0000E+00  0.0000E+00  0.0000E+00  0.0000E+00  0.0000E+00
    -50.509  0.0000E+00  0.0000E+00  0.0000E+00  0.0000E+00  0.0000E+00  0.0000E+00  0.0000E+00  0.0000E+00  0.0000E+00
    -50.222  0.0000E+00  0.0000E+00  0.0000E+00  0.0000E+00  0.0000E+00  0.0000E+00  0.0000E+00  0.0000E+00  0.0000E+00
    -49.936  0.0000E+00  0.0000E+00  0.0000E+00  0.0000E+00  0.0000E+00  0.0000E+00  0.0000E+00  0.0000E+00  0.0000E+00
    -49.650  0.0000E+00  0.0000E+00  0.0000E+00  0.0000E+00  0.0000E+00  0.0000E+00  0.0000E+00  0.0000E+00  0.0000E+00
    -49.364  0.0000E+00  0.0000E+00  0.0000E+00  0.0000E+00  0.0000E+00  0.0000E+00  0.0000E+00  0.0000E+00  0.0000E+00
    -49.077  0.0000E+00  0.0000E+00  0.0000E+00  0.0000E+00  0.0000E+00  0.0000E+00  0.0000E+00  0.0000E+00  0.0000E+00
    -48.791  0.0000E+00  0.0000E+00  0.0000E+00  0.0000E+00  0.0000E+00  0.0000E+00  0.0000E+00  0.0000E+00  0.0000E+00
    -48.505  0.0000E+00  0.0000E+00  0.0000E+00  0.0000E+00  0.0000E+00  0.0000E+00  0.0000E+00  0.0000E+00  0.0000E+00
    -48.218  0.0000E+00  0.0000E+00  0.0000E+00  0.0000E+00  0.0000E+00  0.0000E+00  0.0000E+00  0.0000E+00  0.0000E+00
    -47.932  0.0000E+00  0.0000E+00  0.0000E+00  0.0000E+00  0.0000E+00  0.0000E+00  0.0000E+00  0.0000E+00  0.0000E+00
    -47.646  0.0000E+00  0.0000E+00  0.0000E+00  0.0000E+00  0.0000E+00  0.0000E+00  0.0000E+00  0.0000E+00  0.0000E+00
    -47.360  0.0000E+00  0.0000E+00  0.0000E+00  0.0000E+00  0.0000E+00  0.0000E+00  0.0000E+00  0.0000E+00  0.0000E+00
    -47.073  0.0000E+00  0.0000E+00  0.0000E+00  0.0000E+00  0.0000E+00  0.0000E+00  0.0000E+00  0.0000E+00  0.0000E+00
    -46.787  0.0000E+00  0.0000E+00  0.0000E+00  0.0000E+00  0.0000E+00  0.0000E+00  0.0000E+00  0.0000E+00  0.0000E+00
    -46.501  0.0000E+00  0.0000E+00  0.0000E+00  0.0000E+00  0.0000E+00  0.0000E+00  0.0000E+00  0.0000E+00  0.0000E+00
    -46.214  0.0000E+00  0.0000E+00  0.0000E+00  0.0000E+00  0.0000E+00  0.0000E+00  0.0000E+00  0.0000E+00  0.0000E+00
    -45.928  0.0000E+00  0.0000E+00  0.0000E+00  0.0000E+00  0.0000E+00  0.0000E+00  0.0000E+00  0.0000E+00  0.0000E+00
    -45.642  0.0000E+00  0.0000E+00  0.0000E+00  0.0000E+00  0.0000E+00  0.0000E+00  0.0000E+00  0.0000E+00  0.0000E+00
    -45.356  0.0000E+00  0.0000E+00  0.0000E+00  0.0000E+00  0.0000E+00  0.0000E+00  0.0000E+00  0.0000E+00  0.0000E+00
    -45.069  0.0000E+00  0.0000E+00  0.0000E+00  0.0000E+00  0.0000E+00  0.0000E+00  0.0000E+00  0.0000E+00  0.0000E+00
    -44.783  0.0000E+00  0.0000E+00  0.0000E+00  0.0000E+00  0.0000E+00  0.0000E+00  0.0000E+00  0.0000E+00  0.0000E+00
    -44.497  0.0000E+00  0.0000E+00  0.0000E+00  0.0000E+00  0.0000E+00  0.0000E+00  0.0000E+00  0.0000E+00  0.0000E+00
    -44.210  0.0000E+00  0.0000E+00  0.0000E+00  0.0000E+00  0.0000E+00  0.0000E+00  0.0000E+00  0.0000E+00  0.0000E+00
    -43.924  0.0000E+00  0.0000E+00  0.0000E+00  0.0000E+00  0.0000E+00  0.0000E+00  0.0000E+00  0.0000E+00  0.0000E+00
    -43.638  0.0000E+00  0.0000E+00  0.0000E+00  0.0000E+00  0.0000E+00  0.0000E+00  0.0000E+00  0.0000E+00  0.0000E+00
    -43.352  0.0000E+00  0.0000E+00  0.0000E+00  0.0000E+00  0.0000E+00  0.0000E+00  0.0000E+00  0.0000E+00  0.0000E+00
    -43.065  0.0000E+00  0.0000E+00  0.0000E+00  0.0000E+00  0.0000E+00  0.0000E+00  0.0000E+00  0.0000E+00  0.0000E+00
    -42.779  0.0000E+00  0.0000E+00  0.0000E+00  0.0000E+00  0.0000E+00  0.0000E+00  0.0000E+00  0.0000E+00  0.0000E+00
    -42.493  0.0000E+00  0.0000E+00  0.0000E+00  0.0000E+00  0.0000E+00  0.0000E+00  0.0000E+00  0.0000E+00  0.0000E+00
    -42.206  0.0000E+00  0.0000E+00  0.0000E+00  0.0000E+00  0.0000E+00  0.0000E+00  0.0000E+00  0.0000E+00  0.0000E+00
    -41.920  0.0000E+00  0.0000E+00  0.0000E+00  0.0000E+00  0.0000E+00  0.0000E+00  0.0000E+00  0.0000E+00  0.0000E+00
    -41.634  0.0000E+00  0.0000E+00  0.0000E+00  0.0000E+00  0.0000E+00  0.0000E+00  0.0000E+00  0.0000E+00  0.0000E+00
    -41.347  0.0000E+00  0.0000E+00  0.0000E+00  0.0000E+00  0.0000E+00  0.0000E+00  0.0000E+00  0.0000E+00  0.0000E+00
    -41.061  0.0000E+00  0.0000E+00  0.0000E+00  0.0000E+00  0.0000E+00  0.0000E+00  0.0000E+00  0.0000E+00  0.0000E+00
    -40.775  0.0000E+00  0.0000E+00  0.0000E+00  0.0000E+00  0.0000E+00  0.0000E+00  0.0000E+00  0.0000E+00  0.0000E+00
    -40.489  0.0000E+00  0.0000E+00  0.0000E+00  0.0000E+00  0.0000E+00  0.0000E+00  0.0000E+00  0.0000E+00  0.0000E+00
    -40.202  0.0000E+00  0.0000E+00  0.0000E+00  0.0000E+00  0.0000E+00  0.0000E+00  0.0000E+00  0.0000E+00  0.0000E+00
    -39.916  0.0000E+00  0.0000E+00  0.0000E+00  0.0000E+00  0.0000E+00  0.0000E+00  0.0000E+00  0.0000E+00  0.0000E+00
    -39.630  0.0000E+00  0.0000E+00  0.0000E+00  0.0000E+00  0.0000E+00  0.0000E+00  0.0000E+00  0.0000E+00  0.0000E+00
    -39.343  0.0000E+00  0.0000E+00  0.0000E+00  0.0000E+00  0.0000E+00  0.0000E+00  0.0000E+00  0.0000E+00  0.0000E+00
    -39.057  0.0000E+00  0.0000E+00  0.0000E+00  0.0000E+00  0.0000E+00  0.0000E+00  0.0000E+00  0.0000E+00  0.0000E+00
    -38.771  0.0000E+00  0.0000E+00  0.0000E+00  0.0000E+00  0.0000E+00  0.0000E+00  0.0000E+00  0.0000E+00  0.0000E+00
    -38.485  0.0000E+00  0.0000E+00  0.0000E+00  0.0000E+00  0.0000E+00  0.0000E+00  0.0000E+00  0.0000E+00  0.0000E+00
    -38.198  0.0000E+00  0.0000E+00  0.0000E+00  0.0000E+00  0.0000E+00  0.0000E+00  0.0000E+00  0.0000E+00  0.0000E+00
    -37.912  0.0000E+00  0.0000E+00  0.0000E+00  0.0000E+00  0.0000E+00  0.0000E+00  0.0000E+00  0.0000E+00  0.0000E+00
    -37.626  0.0000E+00  0.0000E+00  0.0000E+00  0.0000E+00  0.0000E+00  0.0000E+00  0.0000E+00  0.0000E+00  0.0000E+00
    -37.339  0.0000E+00  0.0000E+00  0.0000E+00  0.0000E+00  0.0000E+00  0.0000E+00  0.0000E+00  0.0000E+00  0.0000E+00
    -37.053  0.0000E+00  0.0000E+00  0.0000E+00  0.0000E+00  0.0000E+00  0.0000E+00  0.0000E+00  0.0000E+00  0.0000E+00
    -36.767  0.0000E+00  0.0000E+00  0.0000E+00  0.0000E+00  0.0000E+00  0.0000E+00  0.0000E+00  0.0000E+00  0.0000E+00
    -36.481  0.0000E+00  0.0000E+00  0.0000E+00  0.0000E+00  0.0000E+00  0.0000E+00  0.0000E+00  0.0000E+00  0.0000E+00
    -36.194  0.0000E+00  0.0000E+00  0.0000E+00  0.0000E+00  0.0000E+00  0.0000E+00  0.0000E+00  0.0000E+00  0.0000E+00
    -35.908  0.0000E+00  0.0000E+00  0.0000E+00  0.0000E+00  0.0000E+00  0.0000E+00  0.0000E+00  0.0000E+00  0.0000E+00
    -35.622  0.0000E+00  0.0000E+00  0.0000E+00  0.0000E+00  0.0000E+00  0.0000E+00  0.0000E+00  0.0000E+00  0.0000E+00
    -35.335  0.0000E+00  0.0000E+00  0.0000E+00  0.0000E+00  0.0000E+00  0.0000E+00  0.0000E+00  0.0000E+00  0.0000E+00
    -35.049  0.0000E+00  0.0000E+00  0.0000E+00  0.0000E+00  0.0000E+00  0.0000E+00  0.0000E+00  0.0000E+00  0.0000E+00
    -34.763  0.0000E+00  0.0000E+00  0.0000E+00  0.0000E+00  0.0000E+00  0.0000E+00  0.0000E+00  0.0000E+00  0.0000E+00
    -34.477  0.0000E+00  0.0000E+00  0.0000E+00  0.0000E+00  0.0000E+00  0.0000E+00  0.0000E+00  0.0000E+00  0.0000E+00
    -34.190  0.0000E+00  0.0000E+00  0.0000E+00  0.0000E+00  0.0000E+00  0.0000E+00  0.0000E+00  0.0000E+00  0.0000E+00
    -33.904  0.0000E+00  0.0000E+00  0.0000E+00  0.0000E+00  0.0000E+00  0.0000E+00  0.0000E+00  0.0000E+00  0.0000E+00
    -33.618  0.0000E+00  0.0000E+00  0.0000E+00  0.0000E+00  0.0000E+00  0.0000E+00  0.0000E+00  0.0000E+00  0.0000E+00
    -33.331  0.0000E+00  0.0000E+00  0.0000E+00  0.0000E+00  0.0000E+00  0.0000E+00  0.0000E+00  0.0000E+00  0.0000E+00
    -33.045  0.0000E+00  0.0000E+00  0.0000E+00  0.0000E+00  0.0000E+00  0.0000E+00  0.0000E+00  0.0000E+00  0.0000E+00
    -32.759  0.0000E+00  0.0000E+00  0.0000E+00  0.0000E+00  0.0000E+00  0.0000E+00  0.0000E+00  0.0000E+00  0.0000E+00
    -32.473  0.0000E+00  0.0000E+00  0.0000E+00  0.0000E+00  0.0000E+00  0.0000E+00  0.0000E+00  0.0000E+00  0.0000E+00
    -32.186  0.0000E+00  0.0000E+00  0.0000E+00  0.0000E+00  0.0000E+00  0.0000E+00  0.0000E+00  0.0000E+00  0.0000E+00
    -31.900  0.0000E+00  0.0000E+00  0.0000E+00  0.0000E+00  0.0000E+00  0.0000E+00  0.0000E+00  0.0000E+00  0.0000E+00
    -31.614  0.0000E+00  0.0000E+00  0.0000E+00  0.0000E+00  0.0000E+00  0.0000E+00  0.0000E+00  0.0000E+00  0.0000E+00