       N       E                     dE             d eps       ncg     rms          rms(c)
DAV:   1     0.830852287280E+04    0.83085E+04   -0.65540E+05  6368   0.139E+03
DAV:   2     0.959229676891E+02   -0.82126E+04   -0.80315E+04  5408   0.464E+02
DAV:   3    -0.271511161393E+03   -0.36743E+03   -0.36054E+03  5576   0.119E+02
DAV:   4    -0.279219387061E+03   -0.77082E+01   -0.76158E+01  5416   0.169E+01
DAV:   5    -0.279490088402E+03   -0.27070E+00   -0.27062E+00  6112   0.306E+00    0.691E+01
DAV:   6    -0.265210601429E+03    0.14279E+02   -0.60727E+02  5512   0.813E+01    0.881E+01
DAV:   7    -0.236217152214E+03    0.28993E+02   -0.76917E+01  5722   0.432E+01    0.394E+01
DAV:   8    -0.239778706250E+03   -0.35616E+01   -0.39532E+01  5944   0.487E+01    0.301E+01
DAV:   9    -0.238977517410E+03    0.80119E+00   -0.39777E+01  5664   0.629E+01    0.237E+01
DAV:  10    -0.232663177443E+03    0.63143E+01   -0.16615E+01  5584   0.304E+01    0.111E+01
DAV:  11    -0.231449869124E+03    0.12133E+01   -0.57615E+00  5920   0.157E+01    0.456E+00
DAV:  12    -0.231583548333E+03   -0.13368E+00   -0.24962E+00  5512   0.500E+00    0.346E+00
DAV:  13    -0.231522012079E+03    0.61536E-01   -0.46111E-01  5448   0.415E+00    0.260E+00
DAV:  14    -0.231512110344E+03    0.99017E-02   -0.18812E-01  5536   0.282E+00    0.160E+00
DAV:  15    -0.231492566230E+03    0.19544E-01   -0.15360E-01  5408   0.294E+00    0.781E-01
DAV:  16    -0.231490886915E+03    0.16793E-02   -0.17335E-02  5272   0.615E-01    0.629E-01
DAV:  17    -0.231488838637E+03    0.20483E-02   -0.45142E-03  5552   0.491E-01    0.375E-01
DAV:  18    -0.231489154966E+03   -0.31633E-03   -0.61415E-03  5488   0.465E-01    0.252E-01
DAV:  19    -0.231489790531E+03   -0.63557E-03   -0.26097E-03  5240   0.241E-01    0.242E-01
DAV:  20    -0.231490091143E+03   -0.30061E-03   -0.75969E-04  5320   0.151E-01    0.167E-01
DAV:  21    -0.231491123540E+03   -0.10324E-02   -0.73390E-04  5160   0.124E-01    0.642E-02
DAV:  22    -0.231491902747E+03   -0.77921E-03   -0.24028E-04  5296   0.964E-02    0.510E-02
DAV:  23    -0.231492436126E+03   -0.53338E-03   -0.12528E-04  4536   0.422E-02    0.504E-02
DAV:  24    -0.231493801223E+03   -0.13651E-02   -0.16908E-04  4968   0.573E-02    0.321E-02
DAV:  25    -0.231494163248E+03   -0.36203E-03   -0.43750E-05  4504   0.290E-02    0.297E-02
DAV:  26    -0.231494337398E+03   -0.17415E-03   -0.10138E-05  3144   0.141E-02    0.239E-02
DAV:  27    -0.231494725352E+03   -0.38795E-03   -0.27608E-05  3514   0.152E-02    0.668E-03
DAV:  28    -0.231494826330E+03   -0.10098E-03   -0.63804E-06  3216   0.944E-03    0.919E-03
DAV:  29    -0.231494851645E+03   -0.25315E-04   -0.26976E-06  3064   0.600E-03    0.773E-03
DAV:  30    -0.231494944495E+03   -0.92850E-04   -0.23879E-06  3076   0.516E-03    0.676E-03
DAV:  31    -0.231494984044E+03   -0.39549E-04   -0.24516E-06  3114   0.624E-03    0.337E-03
DAV:  32    -0.231494995262E+03   -0.11218E-04   -0.65977E-07  2936   0.256E-03    0.290E-03
DAV:  33    -0.231495008469E+03   -0.13207E-04   -0.30429E-07  2932   0.186E-03    0.198E-03
DAV:  34    -0.231495018975E+03   -0.10506E-04   -0.29748E-07  2932   0.173E-03    0.208E-03
DAV:  35    -0.231495021377E+03   -0.24023E-05   -0.85895E-08  2968   0.930E-04
   1 F= -.26022908E+03 E0= -.26023193E+03  d E =-.260229E+03
       N       E                     dE             d eps       ncg     rms          rms(c)
DAV:   1    -0.231494048855E+03    0.97012E-03   -0.63068E-02  5680   0.709E-01    0.957E-02
DAV:   2    -0.231494420843E+03   -0.37199E-03   -0.43639E-03  5008   0.123E-01    0.714E-02
DAV:   3    -0.231494403211E+03    0.17632E-04   -0.21871E-04  5208   0.102E-01    0.462E-02
DAV:   4    -0.231494411641E+03   -0.84299E-05   -0.11686E-04  5104   0.128E-01    0.461E-02
DAV:   5    -0.231494390353E+03    0.21288E-04   -0.95894E-05  4492   0.135E-01    0.384E-02
DAV:   6    -0.231494367593E+03    0.22760E-04   -0.31037E-05  3632   0.640E-02    0.556E-03
DAV:   7    -0.231494368779E+03   -0.11860E-05   -0.74989E-06  3058   0.121E-02
   2 F= -.26022843E+03 E0= -.26023133E+03  d E =0.652124E-03
       N       E                     dE             d eps       ncg     rms          rms(c)
DAV:   1    -0.231494792821E+03   -0.42523E-03   -0.47099E-02  5688   0.613E-01    0.834E-02
DAV:   2    -0.231495077508E+03   -0.28469E-03   -0.33030E-03  5000   0.109E-01    0.646E-02
DAV:   3    -0.231495062462E+03    0.15046E-04   -0.15855E-04  5216   0.756E-02    0.372E-02
DAV:   4    -0.231495052947E+03    0.95144E-05   -0.53891E-05  4320   0.612E-02
   3 F= -.26022911E+03 E0= -.26023200E+03  d E =-.316332E-04
       N       E                     dE             d eps       ncg     rms          rms(c)
DAV:   1    -0.231495061386E+03    0.10752E-05   -0.49410E-05  3560   0.831E-02    0.317E-02
DAV:   2    -0.231495222450E+03   -0.16106E-03   -0.25674E-04  4968   0.227E-01    0.905E-02
DAV:   3    -0.231495043303E+03    0.17915E-03   -0.16111E-04  4556   0.183E-01    0.680E-03
DAV:   4    -0.231495044584E+03   -0.12806E-05   -0.54311E-06  3068   0.151E-02
   4 F= -.26022910E+03 E0= -.26023196E+03  d E =-.232597E-04
       N       E                     dE             d eps       ncg     rms          rms(c)
DAV:   1    -0.231495045404E+03   -0.21008E-05   -0.10876E-05  3108   0.118E-02    0.411E-03
DAV:   2    -0.231495047919E+03   -0.25150E-05   -0.45172E-06  3040   0.248E-02
   5 F= -.26022910E+03 E0= -.26023197E+03  d E =-.266006E-04
       N       E                     dE             d eps       ncg     rms          rms(c)
DAV:   1    -0.231494865537E+03    0.17987E-03   -0.16217E-02  5962   0.730E-01    0.468E-02
DAV:   2    -0.231495153505E+03   -0.28797E-03   -0.29475E-03  4896   0.100E-01    0.267E-02
DAV:   3    -0.231495159794E+03   -0.62890E-05   -0.82344E-05  4472   0.383E-02
   6 F= -.26022916E+03 E0= -.26023200E+03  d E =-.515503E-04
       N       E                     dE             d eps       ncg     rms          rms(c)
DAV:   1    -0.231495163085E+03   -0.95798E-05   -0.72136E-04  6806   0.158E-01    0.948E-03
DAV:   2    -0.231495180973E+03   -0.17888E-04   -0.14076E-04  5164   0.446E-02    0.208E-02
DAV:   3    -0.231495176849E+03    0.41241E-05   -0.16751E-05  3196   0.308E-02
   7 F= -.26022916E+03 E0= -.26023201E+03  d E =-.558778E-04
       N       E                     dE             d eps       ncg     rms          rms(c)
DAV:   1    -0.231495208282E+03   -0.27310E-04   -0.40839E-03  5660   0.214E-01    0.201E-02
DAV:   2    -0.231495236154E+03   -0.27871E-04   -0.28542E-04  5088   0.321E-02    0.126E-02
DAV:   3    -0.231495238303E+03   -0.21490E-05   -0.11405E-05  3290   0.306E-02
   8 F= -.26022919E+03 E0= -.26023203E+03  d E =-.276361E-04
       N       E                     dE             d eps       ncg     rms          rms(c)
DAV:   1    -0.231495144628E+03    0.91526E-04   -0.36574E-02  5680   0.645E-01    0.432E-02
DAV:   2    -0.231495397245E+03   -0.25262E-03   -0.25486E-03  4904   0.975E-02    0.330E-02
DAV:   3    -0.231495407423E+03   -0.10179E-04   -0.10627E-04  5024   0.838E-02    0.325E-02
DAV:   4    -0.231495397225E+03    0.10198E-04   -0.25900E-05  3462   0.646E-02    0.182E-02
DAV:   5    -0.231495396942E+03    0.28359E-06   -0.76569E-06  3118   0.334E-02
   9 F= -.26022925E+03 E0= -.26023209E+03  d E =-.848239E-04
       N       E                     dE             d eps       ncg     rms          rms(c)
DAV:   1    -0.231494669249E+03    0.72798E-03   -0.14599E-01  5656   0.129E+00    0.862E-02
DAV:   2    -0.231495661939E+03   -0.99269E-03   -0.10181E-02  4848   0.180E-01    0.527E-02
DAV:   3    -0.231495671941E+03   -0.10003E-04   -0.23504E-04  4984   0.590E-02    0.370E-02
DAV:   4    -0.231495674890E+03   -0.29483E-05   -0.31506E-05  4152   0.570E-02
  10 F= -.26022932E+03 E0= -.26023216E+03  d E =-.159829E-03
       N       E                     dE             d eps       ncg     rms          rms(c)
DAV:   1    -0.231495739424E+03   -0.67483E-04   -0.37611E-03  6410   0.182E-01    0.319E-02
DAV:   2    -0.231495926470E+03   -0.18705E-03   -0.38016E-04  6094   0.229E-01    0.900E-02
DAV:   3    -0.231495733681E+03    0.19279E-03   -0.18495E-04  5230   0.180E-01    0.135E-02
DAV:   4    -0.231495739410E+03   -0.57290E-05   -0.36597E-05  4648   0.193E-02
  11 F= -.26022935E+03 E0= -.26023218E+03  d E =-.249392E-04
       N       E                     dE             d eps       ncg     rms          rms(c)
DAV:   1    -0.231495796324E+03   -0.62643E-04   -0.34535E-02  5256   0.441E-01    0.346E-02
DAV:   2    -0.231495951167E+03   -0.15484E-03   -0.15683E-03  4872   0.730E-02    0.283E-02
DAV:   3    -0.231495953415E+03   -0.22475E-05   -0.50138E-05  4138   0.579E-02
  12 F= -.26022944E+03 E0= -.26023227E+03  d E =-.120194E-03
       N       E                     dE             d eps       ncg     rms          rms(c)
DAV:   1    -0.231495749753E+03    0.20141E-03   -0.13845E-01  5280   0.884E-01    0.699E-02
DAV:   2    -0.231496367926E+03   -0.61817E-03   -0.62398E-03  4928   0.146E-01    0.595E-02
DAV:   3    -0.231496397945E+03   -0.30020E-04   -0.35637E-04  5228   0.162E-01    0.664E-02
DAV:   4    -0.231496353421E+03    0.44524E-04   -0.83912E-05  4814   0.118E-01    0.309E-02
DAV:   5    -0.231496359005E+03   -0.55833E-05   -0.24475E-05  3502   0.582E-02
  13 F= -.26022961E+03 E0= -.26023241E+03  d E =-.288294E-03
       N       E                     dE             d eps       ncg     rms          rms(c)
DAV:   1    -0.231494710501E+03    0.16429E-02   -0.55318E-01  5336   0.176E+00    0.137E-01
DAV:   2    -0.231497109774E+03   -0.23993E-02   -0.24699E-02  4848   0.262E-01    0.891E-02
DAV:   3    -0.231497107222E+03    0.25518E-05   -0.48921E-04  5264   0.915E-02    0.605E-02
DAV:   4    -0.231497137921E+03   -0.30699E-04   -0.12250E-04  5384   0.127E-01    0.631E-02
DAV:   5    -0.231497169498E+03   -0.31577E-04   -0.16626E-04  4678   0.176E-01    0.475E-02
DAV:   6    -0.231497107231E+03    0.62267E-04   -0.57774E-05  3630   0.974E-02    0.109E-02
DAV:   7    -0.231497108816E+03   -0.15846E-05   -0.11067E-05  3552   0.201E-02
  14 F= -.26022988E+03 E0= -.26023269E+03  d E =-.563059E-03
       N       E                     dE             d eps       ncg     rms          rms(c)
DAV:   1    -0.231488806938E+03    0.83003E-02   -0.22176E+00  5360   0.352E+00    0.274E-01
DAV:   2    -0.231498417415E+03   -0.96105E-02   -0.98903E-02  4864   0.511E-01    0.165E-01
DAV:   3    -0.231498397552E+03    0.19863E-04   -0.17718E-03  5496   0.116E-01    0.112E-01
DAV:   4    -0.231498479198E+03   -0.81646E-04   -0.34305E-04  5380   0.178E-01    0.104E-01
DAV:   5    -0.231498494864E+03   -0.15666E-04   -0.39798E-04  5494   0.257E-01    0.714E-02
DAV:   6    -0.231498408613E+03    0.86251E-04   -0.16628E-04  5294   0.168E-01    0.227E-02
DAV:   7    -0.231498406750E+03    0.18636E-05   -0.25315E-05  3844   0.404E-02
  15 F= -.26023023E+03 E0= -.26023304E+03  d E =-.910701E-03
       N       E                     dE             d eps       ncg     rms          rms(c)
DAV:   1    -0.231498481038E+03   -0.72424E-04   -0.39727E-02  4968   0.337E-01    0.358E-02
DAV:   2    -0.231498606557E+03   -0.12552E-03   -0.12794E-03  4920   0.629E-02    0.298E-02
DAV:   3    -0.231498608623E+03   -0.20666E-05   -0.44361E-05  4282   0.577E-02
  16 F= -.26023031E+03 E0= -.26023312E+03  d E =-.836978E-04
       N       E                     dE             d eps       ncg     rms          rms(c)
DAV:   1    -0.231498090514E+03    0.51604E-03   -0.33691E-01  4976   0.984E-01    0.100E-01
DAV:   2    -0.231499104252E+03   -0.10137E-02   -0.10552E-02  4868   0.164E-01    0.820E-02
DAV:   3    -0.231499134916E+03   -0.30664E-04   -0.46431E-04  5296   0.175E-01    0.831E-02
DAV:   4    -0.231499095148E+03    0.39768E-04   -0.16133E-04  5246   0.165E-01    0.467E-02
DAV:   5    -0.231499105069E+03   -0.99214E-05   -0.80961E-05  3814   0.120E-01
  17 F= -.26023047E+03 E0= -.26023327E+03  d E =-.235742E-03
       N       E                     dE             d eps       ncg     rms          rms(c)
DAV:   1    -0.231495697465E+03    0.33977E-02   -0.13465E+00  4968   0.197E+00    0.195E-01
DAV:   2    -0.231499709418E+03   -0.40120E-02   -0.42154E-02  4854   0.307E-01    0.136E-01
DAV:   3    -0.231499638198E+03    0.71220E-04   -0.73786E-04  5264   0.810E-02    0.906E-02
DAV:   4    -0.231499716228E+03   -0.78030E-04   -0.24116E-04  5066   0.139E-01    0.734E-02
DAV:   5    -0.231499745630E+03   -0.29401E-04   -0.33189E-04  5166   0.241E-01    0.840E-02
DAV:   6    -0.231499668815E+03    0.76815E-04   -0.17942E-04  4862   0.182E-01    0.226E-02
DAV:   7    -0.231499658667E+03    0.10148E-04   -0.27056E-05  3758   0.519E-02    0.120E-02
DAV:   8    -0.231499659288E+03   -0.62119E-06   -0.11748E-05  3064   0.130E-02
  18 F= -.26023033E+03 E0= -.26023306E+03  d E =-.100009E-03
       N       E                     dE             d eps       ncg     rms          rms(c)
DAV:   1    -0.231497060294E+03    0.25984E-02   -0.77685E-01  4976   0.148E+00    0.141E-01
DAV:   2    -0.231499286290E+03   -0.22260E-02   -0.23530E-02  4868   0.228E-01    0.983E-02
DAV:   3    -0.231499281876E+03    0.44135E-05   -0.48352E-04  5290   0.140E-01    0.783E-02
DAV:   4    -0.231499328105E+03   -0.46229E-04   -0.24429E-04  5314   0.199E-01    0.751E-02
DAV:   5    -0.231499296181E+03    0.31924E-04   -0.18582E-04  4902   0.187E-01    0.489E-02
DAV:   6    -0.231499269361E+03    0.26820E-04   -0.58210E-05  4194   0.793E-02    0.933E-03
DAV:   7    -0.231499272030E+03   -0.26696E-05   -0.12019E-05  3554   0.232E-02
  19 F= -.26023047E+03 E0= -.26023324E+03  d E =-.236323E-03
       N       E                     dE             d eps       ncg     rms          rms(c)
DAV:   1    -0.231499327624E+03   -0.58264E-04   -0.82602E-03  4950   0.154E-01    0.169E-02
DAV:   2    -0.231499358080E+03   -0.30455E-04   -0.27251E-04  5704   0.553E-02    0.240E-02
DAV:   3    -0.231499354804E+03    0.32762E-05   -0.25489E-05  3518   0.541E-02
  20 F= -.26023050E+03 E0= -.26023327E+03  d E =-.315908E-04
       N       E                     dE             d eps       ncg     rms          rms(c)
DAV:   1    -0.231499371588E+03   -0.13508E-04   -0.74404E-02  4960   0.461E-01    0.461E-02
DAV:   2    -0.231499595911E+03   -0.22432E-03   -0.23459E-03  4854   0.746E-02    0.327E-02
DAV:   3    -0.231499595048E+03    0.86334E-06   -0.46856E-05  3950   0.431E-02
  21 F= -.26023059E+03 E0= -.26023335E+03  d E =-.121630E-03
       N       E                     dE             d eps       ncg     rms          rms(c)
DAV:   1    -0.231499194814E+03    0.40110E-03   -0.29793E-01  4976   0.926E-01    0.957E-02
DAV:   2    -0.231500108454E+03   -0.91364E-03   -0.90583E-03  5192   0.187E-01    0.856E-02
DAV:   3    -0.231500164776E+03   -0.56322E-04   -0.85285E-04  5310   0.273E-01    0.105E-01
DAV:   4    -0.231500044070E+03    0.12071E-03   -0.17044E-04  5270   0.162E-01    0.382E-02
DAV:   5    -0.231500056904E+03   -0.12834E-04   -0.51617E-05  4284   0.320E-02    0.201E-02
DAV:   6    -0.231500060899E+03   -0.39947E-05   -0.28135E-05  3496   0.359E-02
  22 F= -.26023075E+03 E0= -.26023356E+03  d E =-.287032E-03
       N       E                     dE             d eps       ncg     rms          rms(c)
DAV:   1    -0.231497486255E+03    0.25706E-02   -0.11930E+00  4984   0.184E+00    0.175E-01
DAV:   2    -0.231500993042E+03   -0.35068E-02   -0.36489E-02  4854   0.286E-01    0.118E-01
DAV:   3    -0.231500957344E+03    0.35697E-04   -0.60668E-04  5240   0.115E-01    0.793E-02
DAV:   4    -0.231501001075E+03   -0.43731E-04   -0.21524E-04  5352   0.161E-01    0.770E-02
DAV:   5    -0.231501056978E+03   -0.55903E-04   -0.26481E-04  5198   0.215E-01    0.695E-02
DAV:   6    -0.231500968146E+03    0.88832E-04   -0.11751E-04  4862   0.141E-01    0.136E-02
DAV:   7    -0.231500969475E+03   -0.13288E-05   -0.16724E-05  3476   0.281E-02
  23 F= -.26023105E+03 E0= -.26023377E+03  d E =-.579127E-03
       N       E                     dE             d eps       ncg     rms          rms(c)
DAV:   1    -0.231488736968E+03    0.12231E-01   -0.47702E+00  5008   0.368E+00    0.348E-01
DAV:   2    -0.231502813450E+03   -0.14076E-01   -0.14625E-01  4862   0.558E-01    0.228E-01
DAV:   3    -0.231502659789E+03    0.15366E-03   -0.22199E-03  5256   0.180E-01    0.156E-01
DAV:   4    -0.231503227889E+03   -0.56810E-03   -0.11659E-03  5568   0.418E-01    0.193E-01
DAV:   5    -0.231502851204E+03    0.37669E-03   -0.12490E-03  5518   0.482E-01    0.993E-02
DAV:   6    -0.231502690803E+03    0.16040E-03   -0.27164E-04  5910   0.194E-01    0.219E-02
DAV:   7    -0.231502699776E+03   -0.89731E-05   -0.65142E-05  5464   0.404E-02
  24 F= -.26023157E+03 E0= -.26023433E+03  d E =-.110560E-02
       N       E                     dE             d eps       ncg     rms          rms(c)
DAV:   1    -0.231501658681E+03    0.10321E-02   -0.73645E-01  4912   0.129E+00    0.139E-01
DAV:   2    -0.231503655337E+03   -0.19967E-02   -0.20777E-02  4894   0.226E-01    0.109E-01
DAV:   3    -0.231503656442E+03   -0.11043E-05   -0.52493E-04  5418   0.181E-01    0.818E-02
DAV:   4    -0.231503681600E+03   -0.25158E-04   -0.25562E-04  5384   0.209E-01    0.759E-02
DAV:   5    -0.231503651349E+03    0.30251E-04   -0.20675E-04  4990   0.195E-01    0.572E-02
DAV:   6    -0.231503612358E+03    0.38991E-04   -0.68881E-05  4352   0.817E-02    0.113E-02
DAV:   7    -0.231503611910E+03    0.44773E-06   -0.15266E-05  3600   0.296E-02
  25 F= -.26023211E+03 E0= -.26023486E+03  d E =-.533669E-03
       N       E                     dE             d eps       ncg     rms          rms(c)
DAV:   1    -0.231503491500E+03    0.12086E-03   -0.11848E-01  4912   0.518E-01    0.565E-02
DAV:   2    -0.231503827109E+03   -0.33561E-03   -0.34398E-03  4918   0.102E-01    0.495E-02
DAV:   3    -0.231503833181E+03   -0.60720E-05   -0.12621E-04  5224   0.101E-01    0.380E-02
DAV:   4    -0.231503826652E+03    0.65290E-05   -0.47595E-05  3524   0.919E-02
  26 F= -.26023217E+03 E0= -.26023494E+03  d E =-.596426E-03
       N       E                     dE             d eps       ncg     rms          rms(c)
DAV:   1    -0.231503840955E+03   -0.77737E-05   -0.14944E-03  5784   0.106E-01    0.221E-02
DAV:   2    -0.231503938115E+03   -0.97160E-04   -0.17491E-04  5158   0.167E-01    0.661E-02
DAV:   3    -0.231503833453E+03    0.10466E-03   -0.86642E-05  4182   0.129E-01    0.937E-03
DAV:   4    -0.231503835362E+03   -0.19087E-05   -0.11934E-05  3368   0.152E-02
  27 F= -.26023216E+03 E0= -.26023494E+03  d E =-.587607E-03
       N       E                     dE             d eps       ncg     rms          rms(c)
DAV:   1    -0.231503822045E+03    0.11408E-04   -0.74061E-04  4472   0.421E-02    0.607E-03
DAV:   2    -0.231503826743E+03   -0.46976E-05   -0.25316E-05  3450   0.334E-02
  28 F= -.26023216E+03 E0= -.26023494E+03  d E =-.590967E-03
       N       E                     dE             d eps       ncg     rms          rms(c)
DAV:   1    -0.231503828853E+03   -0.68082E-05   -0.18148E-04  3836   0.374E-02    0.375E-03
DAV:   2    -0.231503830099E+03   -0.12463E-05   -0.77427E-06  3120   0.966E-03
  29 F= -.26023216E+03 E0= -.26023494E+03  d E =-.588331E-03
       N       E                     dE             d eps       ncg     rms          rms(c)
DAV:   1    -0.231503826760E+03    0.20936E-05   -0.54879E-05  3394   0.157E-02    0.236E-03
DAV:   2    -0.231503827511E+03   -0.75158E-06   -0.29034E-06  3048   0.147E-02
  30 F= -.26023216E+03 E0= -.26023494E+03  d E =-.589073E-03
       N       E                     dE             d eps       ncg     rms          rms(c)
DAV:   1    -0.231503828863E+03   -0.21039E-05   -0.19348E-05  3148   0.143E-02    0.118E-03
DAV:   2    -0.231503829171E+03   -0.30757E-06   -0.11434E-06  2924   0.330E-03
  31 F= -.26023216E+03 E0= -.26023494E+03  d E =-.588735E-03
       N       E                     dE             d eps       ncg     rms          rms(c)
DAV:   1    -0.231503828003E+03    0.86031E-06   -0.72009E-06  2826   0.539E-03    0.781E-04
DAV:   2    -0.231503828107E+03   -0.10384E-06   -0.35784E-07  2938   0.382E-03
  32 F= -.26023216E+03 E0= -.26023494E+03  d E =-.588906E-03
       N       E                     dE             d eps       ncg     rms          rms(c)
DAV:   1    -0.231503735263E+03    0.92740E-04   -0.11772E-01  4912   0.477E-01    0.517E-02
DAV:   2    -0.231504025741E+03   -0.29048E-03   -0.30178E-03  4854   0.719E-02    0.348E-02
DAV:   3    -0.231504022350E+03    0.33907E-05   -0.42395E-05  3968   0.249E-02
  33 F= -.26023225E+03 E0= -.26023503E+03  d E =-.904829E-04
       N       E                     dE             d eps       ncg     rms          rms(c)
DAV:   1    -0.231502013236E+03    0.20125E-02   -0.10576E+00  4912   0.143E+00    0.161E-01
DAV:   2    -0.231504594734E+03   -0.25815E-02   -0.27005E-02  4860   0.231E-01    0.118E-01
DAV:   3    -0.231504694258E+03   -0.99524E-04   -0.91403E-04  5328   0.261E-01    0.124E-01
DAV:   4    -0.231504590661E+03    0.10360E-03   -0.38480E-04  5502   0.261E-01    0.690E-02
DAV:   5    -0.231504627778E+03   -0.37117E-04   -0.20822E-04  5206   0.189E-01    0.540E-02
DAV:   6    -0.231504566141E+03    0.61637E-04   -0.90663E-05  4454   0.111E-01    0.114E-02
DAV:   7    -0.231504569598E+03   -0.34564E-05   -0.23107E-05  3784   0.259E-02
  34 F= -.26023249E+03 E0= -.26023526E+03  d E =-.325830E-03
       N       E                     dE             d eps       ncg     rms          rms(c)
DAV:   1    -0.231495061785E+03    0.95044E-02   -0.42360E+00  4912   0.286E+00    0.312E-01
DAV:   2    -0.231505589738E+03   -0.10528E-01   -0.10998E-01  4854   0.437E-01    0.212E-01
DAV:   3    -0.231505475062E+03    0.11468E-03   -0.16586E-03  5280   0.190E-01    0.145E-01
DAV:   4    -0.231505805817E+03   -0.33076E-03   -0.92563E-04  5538   0.358E-01    0.167E-01
DAV:   5    -0.231505804011E+03    0.18068E-05   -0.11400E-03  5614   0.463E-01    0.112E-01
DAV:   6    -0.231505503044E+03    0.30097E-03   -0.33478E-04  5606   0.229E-01    0.206E-02
DAV:   7    -0.231505512112E+03   -0.90678E-05   -0.63185E-05  5512   0.346E-02
  35 F= -.26023280E+03 E0= -.26023563E+03  d E =-.641744E-03
       N       E                     dE             d eps       ncg     rms          rms(c)
DAV:   1    -0.231464488334E+03    0.41015E-01   -0.16912E+01  4992   0.572E+00    0.628E-01
DAV:   2    -0.231507285485E+03   -0.42797E-01   -0.44707E-01  4886   0.875E-01    0.427E-01
DAV:   3    -0.231506662304E+03    0.62318E-03   -0.67601E-03  5376   0.399E-01    0.292E-01
DAV:   4    -0.231508131777E+03   -0.14695E-02   -0.41948E-03  5560   0.784E-01    0.335E-01
DAV:   5    -0.231507529594E+03    0.60218E-03   -0.44881E-03  5478   0.914E-01    0.234E-01
DAV:   6    -0.231506636314E+03    0.89328E-03   -0.12191E-03  5974   0.415E-01    0.384E-02
DAV:   7    -0.231506678814E+03   -0.42500E-04   -0.30953E-04  6392   0.686E-02    0.385E-02
DAV:   8    -0.231506676808E+03    0.20058E-05   -0.55251E-05  4984   0.460E-02
  36 F= -.26023270E+03 E0= -.26023553E+03  d E =-.540181E-03
       N       E                     dE             d eps       ncg     rms          rms(c)
DAV:   1    -0.231494579898E+03    0.12099E-01   -0.47497E+00  4912   0.304E+00    0.328E-01
DAV:   2    -0.231506309493E+03   -0.11730E-01   -0.12331E-01  4854   0.469E-01    0.235E-01
DAV:   3    -0.231506152743E+03    0.15675E-03   -0.20401E-03  5272   0.227E-01    0.161E-01
DAV:   4    -0.231506506846E+03   -0.35410E-03   -0.10823E-03  5538   0.385E-01    0.177E-01
DAV:   5    -0.231506411533E+03    0.95313E-04   -0.12249E-03  5510   0.478E-01    0.124E-01
DAV:   6    -0.231506177171E+03    0.23436E-03   -0.42527E-04  5846   0.260E-01    0.254E-02
DAV:   7    -0.231506185148E+03   -0.79777E-05   -0.87434E-05  5788   0.437E-02
  37 F= -.26023288E+03 E0= -.26023570E+03  d E =-.721793E-03
       N       E                     dE             d eps       ncg     rms          rms(c)
DAV:   1    -0.231506229737E+03   -0.52566E-04   -0.29771E-02  4894   0.234E-01    0.265E-02
DAV:   2    -0.231506299896E+03   -0.70159E-04   -0.73890E-04  4912   0.470E-02    0.242E-02
DAV:   3    -0.231506299007E+03    0.88895E-06   -0.29388E-05  3786   0.431E-02
  38 F= -.26023295E+03 E0= -.26023576E+03  d E =-.626442E-04
       N       E                     dE             d eps       ncg     rms          rms(c)
DAV:   1    -0.231505990389E+03    0.30951E-03   -0.26863E-01  4904   0.701E-01    0.829E-02
DAV:   2    -0.231506620105E+03   -0.62972E-03   -0.66457E-03  4860   0.117E-01    0.627E-02
DAV:   3    -0.231506646911E+03   -0.26806E-04   -0.26405E-04  5236   0.140E-01    0.672E-02
DAV:   4    -0.231506616127E+03    0.30784E-04   -0.11661E-04  5022   0.141E-01    0.375E-02
DAV:   5    -0.231506617517E+03   -0.13898E-05   -0.48951E-05  3726   0.917E-02
  39 F= -.26023311E+03 E0= -.26023592E+03  d E =-.227363E-03
       N       E                     dE             d eps       ncg     rms          rms(c)
DAV:   1    -0.231504670223E+03    0.19459E-02   -0.10734E+00  4912   0.140E+00    0.159E-01
DAV:   2    -0.231507199551E+03   -0.25293E-02   -0.26560E-02  4854   0.225E-01    0.115E-01
DAV:   3    -0.231507181417E+03    0.18134E-04   -0.51705E-04  5352   0.134E-01    0.789E-02
DAV:   4    -0.231507251866E+03   -0.70449E-04   -0.24175E-04  5328   0.191E-01    0.791E-02
DAV:   5    -0.231507296023E+03   -0.44157E-04   -0.31364E-04  5046   0.246E-01    0.733E-02
DAV:   6    -0.231507188631E+03    0.10739E-03   -0.10502E-04  4494   0.127E-01    0.114E-02
DAV:   7    -0.231507190312E+03   -0.16813E-05   -0.15292E-05  3744   0.280E-02
  40 F= -.26023338E+03 E0= -.26023619E+03  d E =-.491783E-03
       N       E                     dE             d eps       ncg     rms          rms(c)
DAV:   1    -0.231497986882E+03    0.92017E-02   -0.43035E+00  4912   0.280E+00    0.312E-01
DAV:   2    -0.231508241206E+03   -0.10254E-01   -0.10745E-01  4854   0.431E-01    0.224E-01
DAV:   3    -0.231508107202E+03    0.13400E-03   -0.18080E-03  5296   0.198E-01    0.151E-01
DAV:   4    -0.231508194468E+03   -0.87265E-04   -0.67060E-04  5352   0.235E-01    0.134E-01
DAV:   5    -0.231508525977E+03   -0.33151E-03   -0.85296E-04  5554   0.380E-01    0.130E-01
DAV:   6    -0.231508145455E+03    0.38052E-03   -0.45368E-04  5854   0.277E-01    0.234E-02
DAV:   7    -0.231508153950E+03   -0.84946E-05   -0.53826E-05  5048   0.350E-02
  41 F= -.26023372E+03 E0= -.26023651E+03  d E =-.834983E-03
       N       E                     dE             d eps       ncg     rms          rms(c)
DAV:   1    -0.231505927753E+03    0.22177E-02   -0.10496E+00  4904   0.138E+00    0.157E-01
DAV:   2    -0.231508503089E+03   -0.25753E-02   -0.26911E-02  4854   0.214E-01    0.108E-01
DAV:   3    -0.231508483621E+03    0.19468E-04   -0.43192E-04  5360   0.104E-01    0.737E-02
DAV:   4    -0.231508558382E+03   -0.74761E-04   -0.22727E-04  5224   0.178E-01    0.772E-02
DAV:   5    -0.231508570893E+03   -0.12512E-04   -0.27619E-04  5110   0.227E-01    0.656E-02
DAV:   6    -0.231508492602E+03    0.78291E-04   -0.87745E-05  4286   0.122E-01    0.986E-03
DAV:   7    -0.231508495233E+03   -0.26308E-05   -0.16868E-05  3544   0.157E-02
  42 F= -.26023375E+03 E0= -.26023653E+03  d E =-.868018E-03
       N       E                     dE             d eps       ncg     rms          rms(c)
DAV:   1    -0.231508445033E+03    0.47569E-04   -0.71350E-02  4904   0.365E-01    0.440E-02
DAV:   2    -0.231508635062E+03   -0.19003E-03   -0.19469E-03  4884   0.681E-02    0.326E-02
DAV:   3    -0.231508635683E+03   -0.62073E-06   -0.46550E-05  4208   0.559E-02
  43 F= -.26023385E+03 E0= -.26023664E+03  d E =-.981044E-04
       N       E                     dE             d eps       ncg     rms          rms(c)
DAV:   1    -0.231507410637E+03    0.12244E-02   -0.64091E-01  4904   0.110E+00    0.130E-01
DAV:   2    -0.231509066919E+03   -0.16563E-02   -0.16975E-02  4946   0.206E-01    0.103E-01
DAV:   3    -0.231509205780E+03   -0.13886E-03   -0.10465E-03  5330   0.304E-01    0.129E-01
DAV:   4    -0.231509015731E+03    0.19005E-03   -0.30115E-04  5454   0.228E-01    0.489E-02
DAV:   5    -0.231509051153E+03   -0.35421E-04   -0.88617E-05  4438   0.108E-01    0.410E-02
DAV:   6    -0.231509028880E+03    0.22272E-04   -0.62840E-05  4718   0.840E-02    0.126E-02
DAV:   7    -0.231509030940E+03   -0.20596E-05   -0.16287E-05  3432   0.279E-02
  44 F= -.26023412E+03 E0= -.26023690E+03  d E =-.365395E-03
       N       E                     dE             d eps       ncg     rms          rms(c)
DAV:   1    -0.231503211346E+03    0.58175E-02   -0.25666E+00  4904   0.219E+00    0.246E-01
DAV:   2    -0.231509793286E+03   -0.65819E-02   -0.68597E-02  4854   0.346E-01    0.166E-01
DAV:   3    -0.231509740582E+03    0.52704E-04   -0.10856E-03  5336   0.171E-01    0.117E-01
DAV:   4    -0.231509991704E+03   -0.25112E-03   -0.66621E-04  5592   0.320E-01    0.139E-01
DAV:   5    -0.231509888475E+03    0.10323E-03   -0.71465E-04  5638   0.371E-01    0.790E-02
DAV:   6    -0.231509743129E+03    0.14535E-03   -0.18387E-04  5614   0.164E-01    0.158E-02
DAV:   7    -0.231509748096E+03   -0.49670E-05   -0.35406E-05  4440   0.258E-02
  45 F= -.26023457E+03 E0= -.26023742E+03  d E =-.822634E-03
       N       E                     dE             d eps       ncg     rms          rms(c)
DAV:   1    -0.231484329279E+03    0.25414E-01   -0.10256E+01  4904   0.438E+00    0.495E-01
DAV:   2    -0.231511160240E+03   -0.26831E-01   -0.27957E-01  4854   0.691E-01    0.334E-01
DAV:   3    -0.231510915261E+03    0.24498E-03   -0.44547E-03  5432   0.353E-01    0.236E-01
DAV:   4    -0.231512071562E+03   -0.11563E-02   -0.30130E-03  5592   0.696E-01    0.289E-01
DAV:   5    -0.231511244713E+03    0.82685E-03   -0.27714E-03  5534   0.724E-01    0.151E-01
DAV:   6    -0.231510849294E+03    0.39542E-03   -0.64866E-04  6702   0.284E-01    0.297E-02
DAV:   7    -0.231510870778E+03   -0.21483E-04   -0.14227E-04  6064   0.584E-02    0.317E-02
DAV:   8    -0.231510868806E+03    0.19714E-05   -0.51582E-05  4856   0.428E-02
  46 F= -.26023516E+03 E0= -.26023808E+03  d E =-.140484E-02
       N       E                     dE             d eps       ncg     rms          rms(c)
DAV:   1    -0.231399213867E+03    0.11166E+00   -0.40860E+01  5008   0.875E+00    0.101E+00
DAV:   2    -0.231514819902E+03   -0.11561E+00   -0.12057E+00  4990   0.138E+00    0.702E-01
DAV:   3    -0.231512599195E+03    0.22207E-02   -0.18554E-02  5264   0.569E-01    0.474E-01
DAV:   4    -0.231515581410E+03   -0.29822E-02   -0.10135E-02  5608   0.113E+00    0.507E-01
DAV:   5    -0.231514676180E+03    0.90523E-03   -0.10553E-02  5518   0.139E+00    0.386E-01
DAV:   6    -0.231512406336E+03    0.22698E-02   -0.35332E-03  5798   0.730E-01    0.734E-02
DAV:   7    -0.231512497563E+03   -0.91227E-04   -0.81728E-04  6304   0.128E-01    0.573E-02
DAV:   8    -0.231512491590E+03    0.59735E-05   -0.13442E-04  5192   0.787E-02    0.299E-02
DAV:   9    -0.231512490121E+03    0.14689E-05   -0.51995E-05  4512   0.395E-02
  47 F= -.26023560E+03 E0= -.26023865E+03  d E =-.185085E-02
       N       E                     dE             d eps       ncg     rms          rms(c)
DAV:   1    -0.231502616856E+03    0.98747E-02   -0.38351E+00  4904   0.273E+00    0.309E-01
DAV:   2    -0.231513193271E+03   -0.10576E-01   -0.11004E-01  4854   0.443E-01    0.207E-01
DAV:   3    -0.231513113285E+03    0.79985E-04   -0.18613E-03  5360   0.215E-01    0.141E-01
DAV:   4    -0.231513410016E+03   -0.29673E-03   -0.93406E-04  5560   0.370E-01    0.161E-01
DAV:   5    -0.231513378835E+03    0.31182E-04   -0.10535E-03  5556   0.447E-01    0.112E-01
DAV:   6    -0.231513103500E+03    0.27534E-03   -0.30206E-04  6164   0.222E-01    0.185E-02
DAV:   7    -0.231513113859E+03   -0.10359E-04   -0.58358E-05  5144   0.353E-02    0.206E-02
DAV:   8    -0.231513114207E+03   -0.34878E-06   -0.18962E-05  3560   0.241E-02
  48 F= -.26023608E+03 E0= -.26023922E+03  d E =-.473537E-03
       N       E                     dE             d eps       ncg     rms          rms(c)
DAV:   1    -0.231414480908E+03    0.98633E-01   -0.34394E+01  5008   0.819E+00    0.945E-01
DAV:   2    -0.231516530755E+03   -0.10205E+00   -0.10625E+00  4902   0.130E+00    0.636E-01
DAV:   3    -0.231514946467E+03    0.15843E-02   -0.16386E-02  5272   0.504E-01    0.425E-01
DAV:   4    -0.231517860055E+03   -0.29136E-02   -0.85472E-03  5632   0.105E+00    0.482E-01
DAV:   5    -0.231516520219E+03    0.13398E-02   -0.88547E-03  5542   0.127E+00    0.309E-01
DAV:   6    -0.231514915290E+03    0.16049E-02   -0.26135E-03  6414   0.640E-01    0.730E-02
DAV:   7    -0.231514965646E+03   -0.50356E-04   -0.54633E-04  6410   0.148E-01    0.610E-02
DAV:   8    -0.231514956336E+03    0.93100E-05   -0.15333E-04  5248   0.815E-02    0.301E-02
DAV:   9    -0.231514955636E+03    0.70012E-06   -0.51614E-05  4640   0.495E-02
  49 F= -.26023729E+03 E0= -.26024072E+03  d E =-.169239E-02
       N       E                     dE             d eps       ncg     rms          rms(c)
DAV:   1    -0.231041868644E+03    0.47309E+00   -0.13577E+02  5080   0.164E+01    0.202E+00
DAV:   2    -0.231534830962E+03   -0.49296E+00   -0.51393E+00  5094   0.271E+00    0.147E+00
DAV:   3    -0.231520467176E+03    0.14364E-01   -0.83180E-02  5496   0.118E+00    0.961E-01
DAV:   4    -0.231534603671E+03   -0.14136E-01   -0.44614E-02  5682   0.241E+00    0.111E+00
DAV:   5    -0.231521019361E+03    0.13584E-01   -0.36329E-02  5516   0.254E+00    0.590E-01
DAV:   6    -0.231517351985E+03    0.36674E-02   -0.11091E-02  6756   0.117E+00    0.185E-01
DAV:   7    -0.231517648306E+03   -0.29632E-03   -0.28737E-03  6504   0.348E-01    0.126E-01
DAV:   8    -0.231517606498E+03    0.41808E-04   -0.86121E-04  5272   0.201E-01    0.690E-02
DAV:   9    -0.231517592601E+03    0.13897E-04   -0.22602E-04  5200   0.124E-01    0.445E-02
DAV:  10    -0.231517590562E+03    0.20389E-05   -0.13505E-04  5008   0.696E-02    0.313E-02
DAV:  11    -0.231517587218E+03    0.33434E-05   -0.30052E-05  4344   0.432E-02
  50 F= -.26023764E+03 E0= -.26024161E+03  d E =-.203331E-02
       N       E                     dE             d eps       ncg     rms          rms(c)
DAV:   1    -0.231432278611E+03    0.85312E-01   -0.26424E+01  4872   0.762E+00    0.856E-01
DAV:   2    -0.231518060424E+03   -0.85782E-01   -0.89304E-01  4918   0.125E+00    0.616E-01
DAV:   3    -0.231516783724E+03    0.12767E-02   -0.16434E-02  5312   0.532E-01    0.407E-01
DAV:   4    -0.231517343300E+03   -0.55958E-03   -0.59718E-03  5584   0.703E-01    0.362E-01
DAV:   5    -0.231518866463E+03   -0.15232E-02   -0.61330E-03  5484   0.104E+00    0.373E-01
DAV:   6    -0.231516603520E+03    0.22629E-02   -0.33263E-03  5772   0.753E-01    0.760E-02
DAV:   7    -0.231516638334E+03   -0.34815E-04   -0.58525E-04  6844   0.165E-01    0.557E-02
DAV:   8    -0.231516632410E+03    0.59246E-05   -0.13764E-04  4952   0.732E-02    0.301E-02
DAV:   9    -0.231516634264E+03   -0.18538E-05   -0.53441E-05  4530   0.531E-02
  51 F= -.26023176E+03 E0= -.26023593E+03  d E =0.587987E-02
       N       E                     dE             d eps       ncg     rms          rms(c)
DAV:   1    -0.231487298482E+03    0.29334E-01   -0.10215E+01  4880   0.473E+00    0.535E-01
DAV:   2    -0.231518396528E+03   -0.31098E-01   -0.32774E-01  4894   0.785E-01    0.379E-01
DAV:   3    -0.231518369117E+03    0.27410E-04   -0.68421E-03  5560   0.485E-01    0.270E-01
DAV:   4    -0.231519155417E+03   -0.78630E-03   -0.31099E-03  5536   0.687E-01    0.282E-01
DAV:   5    -0.231518900006E+03    0.25541E-03   -0.29422E-03  5478   0.747E-01    0.208E-01
DAV:   6    -0.231518227843E+03    0.67216E-03   -0.96603E-04  6614   0.363E-01    0.364E-02
DAV:   7    -0.231518269352E+03   -0.41509E-04   -0.26303E-04  6448   0.742E-02    0.419E-02
DAV:   8    -0.231518265971E+03    0.33809E-05   -0.60207E-05  4824   0.426E-02
  52 F= -.26023384E+03 E0= -.26023789E+03  d E =0.379996E-02
       N       E                     dE             d eps       ncg     rms          rms(c)
DAV:   1    -0.231462328550E+03    0.55941E-01   -0.14043E+01  5040   0.753E+00    0.695E-01
DAV:   2    -0.231520122139E+03   -0.57794E-01   -0.59896E-01  4910   0.118E+00    0.456E-01
DAV:   3    -0.231520079258E+03    0.42882E-04   -0.12494E-02  5320   0.479E-01    0.298E-01
DAV:   4    -0.231520022689E+03    0.56568E-04   -0.25268E-03  5560   0.410E-01    0.237E-01
DAV:   5    -0.231520066514E+03   -0.43825E-04   -0.10708E-03  5424   0.308E-01    0.990E-02
DAV:   6    -0.231520173956E+03   -0.10744E-03   -0.77335E-04  5996   0.276E-01    0.852E-02
DAV:   7    -0.231520079436E+03    0.94520E-04   -0.28899E-04  5964   0.200E-01    0.409E-02
DAV:   8    -0.231520060443E+03    0.18993E-04   -0.55169E-05  4226   0.785E-02    0.212E-02
DAV:   9    -0.231520062497E+03   -0.20545E-05   -0.29717E-05  3840   0.254E-02
  53 F= -.26023558E+03 E0= -.26024001E+03  d E =-.174172E-02
       N       E                     dE             d eps       ncg     rms          rms(c)
DAV:   1    -0.231186077970E+03    0.33398E+00   -0.74300E+01  5120   0.174E+01    0.166E+00
DAV:   2    -0.231526697592E+03   -0.34062E+00   -0.35236E+00  5114   0.278E+00    0.113E+00
DAV:   3    -0.231523908335E+03    0.27893E-02   -0.73952E-02  5664   0.117E+00    0.738E-01
DAV:   4    -0.231526361102E+03   -0.24528E-02   -0.20323E-02  5704   0.141E+00    0.713E-01
DAV:   5    -0.231528640961E+03   -0.22799E-02   -0.19366E-02  5532   0.187E+00    0.616E-01
DAV:   6    -0.231522644180E+03    0.59968E-02   -0.91726E-03  6380   0.124E+00    0.162E-01
DAV:   7    -0.231522891463E+03   -0.24728E-03   -0.23413E-03  6988   0.299E-01    0.108E-01
DAV:   8    -0.231522896657E+03   -0.51935E-05   -0.63680E-04  5304   0.156E-01    0.624E-02
DAV:   9    -0.231522896080E+03    0.57719E-06   -0.18982E-04  4924   0.635E-02    0.250E-02
DAV:  10    -0.231522898086E+03   -0.20061E-05   -0.48225E-05  4584   0.459E-02
  54 F= -.26023888E+03 E0= -.26024424E+03  d E =-.504589E-02
       N       E                     dE             d eps       ncg     rms          rms(c)
DAV:   1    -0.229872094957E+03    0.16508E+01   -0.28848E+02  5144   0.346E+01    0.391E+00
DAV:   2    -0.231583280013E+03   -0.17112E+01   -0.17726E+01  5228   0.591E+00    0.283E+00
DAV:   3    -0.231539222271E+03    0.44058E-01   -0.40356E-01  5784   0.269E+00    0.173E+00
DAV:   4    -0.231554813890E+03   -0.15592E-01   -0.12451E-01  5920   0.339E+00    0.174E+00
DAV:   5    -0.231538929632E+03    0.15884E-01   -0.74393E-02  5572   0.359E+00    0.121E+00
DAV:   6    -0.231525239280E+03    0.13690E-01   -0.32879E-02  6700   0.212E+00    0.514E-01
DAV:   7    -0.231525765438E+03   -0.52616E-03   -0.12864E-02  6712   0.740E-01    0.247E-01
DAV:   8    -0.231525962942E+03   -0.19750E-03   -0.46174E-03  5480   0.426E-01    0.142E-01
DAV:   9    -0.231526027105E+03   -0.64163E-04   -0.11014E-03  5056   0.161E-01    0.670E-02
DAV:  10    -0.231526033301E+03   -0.61961E-05   -0.25654E-04  5264   0.838E-02    0.477E-02
DAV:  11    -0.231526017443E+03    0.15858E-04   -0.91043E-05  4952   0.811E-02    0.334E-02
DAV:  12    -0.231526029072E+03   -0.11629E-04   -0.26967E-05  4080   0.369E-02    0.285E-02
DAV:  13    -0.231526022880E+03    0.61921E-05   -0.32848E-05  4112   0.489E-02
  55 F= -.26024532E+03 E0= -.26025235E+03  d E =-.114830E-01
       N       E                     dE             d eps       ncg     rms          rms(c)
DAV:   1    -0.231524013529E+03    0.20155E-02   -0.64895E-01  4884   0.152E+00    0.144E-01
DAV:   2    -0.231526500432E+03   -0.24869E-02   -0.25873E-02  5026   0.253E-01    0.108E-01
DAV:   3    -0.231526511165E+03   -0.10734E-04   -0.67001E-04  5296   0.141E-01    0.698E-02
DAV:   4    -0.231526530744E+03   -0.19579E-04   -0.17083E-04  5256   0.143E-01    0.631E-02
DAV:   5    -0.231526571782E+03   -0.41037E-04   -0.17717E-04  4860   0.182E-01    0.645E-02
DAV:   6    -0.231526507161E+03    0.64621E-04   -0.76564E-05  4188   0.113E-01    0.106E-02
DAV:   7    -0.231526511363E+03   -0.42024E-05   -0.23096E-05  3776   0.202E-02
  56 F= -.26024576E+03 E0= -.26025284E+03  d E =-.436945E-03
       N       E                     dE             d eps       ncg     rms          rms(c)
DAV:   1    -0.231505107327E+03    0.21400E-01   -0.58365E+00  4872   0.457E+00    0.434E-01
DAV:   2    -0.231527752263E+03   -0.22645E-01   -0.23590E-01  5050   0.754E-01    0.323E-01
DAV:   3    -0.231527774037E+03   -0.21775E-04   -0.57778E-03  5368   0.359E-01    0.195E-01
DAV:   4    -0.231527735824E+03    0.38213E-04   -0.10656E-03  5410   0.238E-01    0.159E-01
DAV:   5    -0.231527860207E+03   -0.12438E-03   -0.49978E-04  5544   0.198E-01    0.742E-02
DAV:   6    -0.231527856903E+03    0.33041E-05   -0.38729E-04  5954   0.207E-01    0.523E-02
DAV:   7    -0.231527822468E+03    0.34435E-04   -0.97674E-05  4804   0.112E-01    0.252E-02
DAV:   8    -0.231527820604E+03    0.18640E-05   -0.23775E-05  3744   0.308E-02
  57 F= -.26024657E+03 E0= -.26025385E+03  d E =-.125619E-02
       N       E                     dE             d eps       ncg     rms          rms(c)
DAV:   1    -0.231435541555E+03    0.92281E-01   -0.23312E+01  4968   0.914E+00    0.879E-01
DAV:   2    -0.231530125050E+03   -0.94583E-01   -0.98308E-01  5090   0.152E+00    0.669E-01
DAV:   3    -0.231529850722E+03    0.27433E-03   -0.24293E-02  5384   0.730E-01    0.400E-01
DAV:   4    -0.231529540869E+03    0.30985E-03   -0.48395E-03  5474   0.479E-01    0.328E-01
DAV:   5    -0.231529605652E+03   -0.64783E-04   -0.18409E-03  5848   0.313E-01    0.111E-01
DAV:   6    -0.231529975269E+03   -0.36962E-03   -0.13905E-03  5800   0.344E-01    0.133E-01
DAV:   7    -0.231529707861E+03    0.26741E-03   -0.50593E-04  6178   0.261E-01    0.456E-02
DAV:   8    -0.231529706636E+03    0.12245E-05   -0.86231E-05  5410   0.796E-02
  58 F= -.26024569E+03 E0= -.26025334E+03  d E =-.369213E-03
       N       E                     dE             d eps       ncg     rms          rms(c)
DAV:   1    -0.231500527466E+03    0.29180E-01   -0.73297E+00  4864   0.514E+00    0.492E-01
DAV:   2    -0.231528960954E+03   -0.28433E-01   -0.29806E-01  5100   0.877E-01    0.404E-01
DAV:   3    -0.231528879990E+03    0.80964E-04   -0.81710E-03  5280   0.468E-01    0.231E-01
DAV:   4    -0.231528931554E+03   -0.51564E-04   -0.17513E-03  5592   0.376E-01    0.210E-01
DAV:   5    -0.231529515205E+03   -0.58365E-03   -0.17413E-03  5550   0.562E-01    0.224E-01
DAV:   6    -0.231528831066E+03    0.68414E-03   -0.11847E-03  6014   0.447E-01    0.560E-02
DAV:   7    -0.231528830196E+03    0.86939E-06   -0.28076E-04  6540   0.117E-01    0.346E-02
DAV:   8    -0.231528829549E+03    0.64727E-06   -0.72076E-05  4824   0.409E-02
  59 F= -.26024667E+03 E0= -.26025413E+03  d E =-.135208E-02
       N       E                     dE             d eps       ncg     rms          rms(c)
DAV:   1    -0.231529636969E+03   -0.80677E-03   -0.65714E-03  6368   0.499E-01    0.362E-02
DAV:   2    -0.231529789919E+03   -0.15295E-03   -0.14452E-03  6028   0.106E-01    0.399E-02
DAV:   3    -0.231529792203E+03   -0.22841E-05   -0.14287E-04  5224   0.115E-01    0.287E-02
DAV:   4    -0.231529778537E+03    0.13666E-04   -0.22090E-05  3300   0.599E-02    0.123E-02
DAV:   5    -0.231529778088E+03    0.44983E-06   -0.46445E-06  2962   0.157E-02
  60 F= -.26024767E+03 E0= -.26025512E+03  d E =-.999292E-03
       N       E                     dE             d eps       ncg     rms          rms(c)
DAV:   1    -0.231531077598E+03   -0.12991E-02   -0.58627E-02  6128   0.149E+00    0.968E-02
DAV:   2    -0.231532307540E+03   -0.12299E-02   -0.12661E-02  4922   0.210E-01    0.652E-02
DAV:   3    -0.231532331302E+03   -0.23762E-04   -0.39802E-04  5320   0.106E-01    0.451E-02
DAV:   4    -0.231532327579E+03    0.37230E-05   -0.60021E-05  4548   0.896E-02
  61 F= -.26025037E+03 E0= -.26025781E+03  d E =-.370085E-02
       N       E                     dE             d eps       ncg     rms          rms(c)
DAV:   1    -0.231531075315E+03    0.12560E-02   -0.23431E-01  6128   0.300E+00    0.184E-01
DAV:   2    -0.231535984979E+03   -0.49097E-02   -0.50284E-02  4922   0.420E-01    0.136E-01
DAV:   3    -0.231536102271E+03   -0.11729E-03   -0.16670E-03  5314   0.255E-01    0.108E-01
DAV:   4    -0.231536043595E+03    0.58676E-04   -0.30250E-04  5286   0.214E-01    0.844E-02
DAV:   5    -0.231536008144E+03    0.35450E-04   -0.12795E-04  5218   0.142E-01    0.635E-02
DAV:   6    -0.231535975254E+03    0.32891E-04   -0.78497E-05  5190   0.752E-02    0.212E-02
DAV:   7    -0.231535978742E+03   -0.34887E-05   -0.26087E-05  3696   0.308E-02
  62 F= -.26025433E+03 E0= -.26026173E+03  d E =-.765553E-02
       N       E                     dE             d eps       ncg     rms          rms(c)
DAV:   1    -0.231517893585E+03    0.18082E-01   -0.93876E-01  6128   0.598E+00    0.400E-01
DAV:   2    -0.231537482916E+03   -0.19589E-01   -0.20176E-01  5040   0.837E-01    0.245E-01
DAV:   3    -0.231537920276E+03   -0.43736E-03   -0.62090E-03  5384   0.438E-01    0.183E-01
DAV:   4    -0.231537803801E+03    0.11647E-03   -0.10854E-03  5578   0.386E-01    0.148E-01
DAV:   5    -0.231537643486E+03    0.16032E-03   -0.40356E-04  5262   0.261E-01    0.119E-01
DAV:   6    -0.231537567446E+03    0.76040E-04   -0.28031E-04  6266   0.115E-01    0.397E-02
DAV:   7    -0.231537571460E+03   -0.40138E-05   -0.83464E-05  5352   0.456E-02
  63 F= -.26025652E+03 E0= -.26026386E+03  d E =-.985257E-02
       N       E                     dE             d eps       ncg     rms          rms(c)
DAV:   1    -0.231538083396E+03   -0.51595E-03   -0.42029E-02  6206   0.144E+00    0.897E-02
DAV:   2    -0.231539171862E+03   -0.10885E-02   -0.11037E-02  4934   0.209E-01    0.574E-02
DAV:   3    -0.231539242956E+03   -0.71094E-04   -0.47156E-04  5236   0.182E-01    0.631E-02
DAV:   4    -0.231539182251E+03    0.60705E-04   -0.89809E-05  4558   0.120E-01    0.290E-02
DAV:   5    -0.231539184077E+03   -0.18263E-05   -0.14166E-05  3202   0.306E-02
  64 F= -.26025821E+03 E0= -.26026555E+03  d E =-.168725E-02
       N       E                     dE             d eps       ncg     rms          rms(c)
DAV:   1    -0.231533355932E+03    0.58263E-02   -0.37907E-01  6200   0.432E+00    0.259E-01
DAV:   2    -0.231542993359E+03   -0.96374E-02   -0.98485E-02  4926   0.573E-01    0.145E-01
DAV:   3    -0.231543226587E+03   -0.23323E-03   -0.26914E-03  5178   0.259E-01    0.117E-01
DAV:   4    -0.231543149967E+03    0.76620E-04   -0.38712E-04  5366   0.202E-01    0.925E-02
DAV:   5    -0.231543120952E+03    0.29016E-04   -0.74289E-05  4702   0.981E-02    0.729E-02
DAV:   6    -0.231543120302E+03    0.64983E-06   -0.62793E-05  4946   0.506E-02
  65 F= -.26026243E+03 E0= -.26026982E+03  d E =-.590852E-02
       N       E                     dE             d eps       ncg     rms          rms(c)
DAV:   1    -0.231508066541E+03    0.35054E-01   -0.15166E+00  6328   0.865E+00    0.535E-01
DAV:   2    -0.231546462199E+03   -0.38396E-01   -0.39351E-01  4956   0.114E+00    0.270E-01
DAV:   3    -0.231547160087E+03   -0.69789E-03   -0.98984E-03  5328   0.331E-01    0.186E-01
DAV:   4    -0.231547106371E+03    0.53716E-04   -0.81179E-04  5338   0.219E-01    0.166E-01
DAV:   5    -0.231547083111E+03    0.23260E-04   -0.24385E-04  5578   0.194E-01    0.140E-01
DAV:   6    -0.231547020774E+03    0.62337E-04   -0.14068E-04  5564   0.132E-01    0.802E-02
DAV:   7    -0.231547038323E+03   -0.17549E-04   -0.14083E-04  5970   0.579E-02    0.239E-02
DAV:   8    -0.231547039144E+03   -0.82189E-06   -0.33367E-05  4432   0.346E-02
  66 F= -.26026678E+03 E0= -.26027428E+03  d E =-.102532E-01
       N       E                     dE             d eps       ncg     rms          rms(c)
DAV:   1    -0.231542796197E+03    0.42421E-02   -0.16896E-01  6206   0.288E+00    0.180E-01
DAV:   2    -0.231547082778E+03   -0.42866E-02   -0.44072E-02  4848   0.382E-01    0.878E-02
DAV:   3    -0.231547169186E+03   -0.86407E-04   -0.11168E-03  5264   0.102E-01    0.599E-02
DAV:   4    -0.231547163612E+03    0.55742E-05   -0.85555E-05  4914   0.728E-02
  67 F= -.26026704E+03 E0= -.26027460E+03  d E =-.105137E-01
       N       E                     dE             d eps       ncg     rms          rms(c)
DAV:   1    -0.231548225059E+03   -0.10559E-02   -0.26549E-02  5606   0.527E-01    0.694E-02
DAV:   2    -0.231548439634E+03   -0.21458E-03   -0.20070E-03  6148   0.152E-01    0.636E-02
DAV:   3    -0.231548460786E+03   -0.21151E-04   -0.36468E-04  5634   0.201E-01    0.615E-02
DAV:   4    -0.231548399966E+03    0.60820E-04   -0.90547E-05  4780   0.123E-01    0.226E-02
DAV:   5    -0.231548399209E+03    0.75670E-06   -0.30380E-05  4008   0.457E-02
  68 F= -.26026819E+03 E0= -.26027576E+03  d E =-.115021E-02
       N       E                     dE             d eps       ncg     rms          rms(c)
DAV:   1    -0.231548752046E+03   -0.35208E-03   -0.16973E-01  5542   0.132E+00    0.115E-01
DAV:   2    -0.231549973678E+03   -0.12216E-02   -0.13152E-02  5040   0.222E-01    0.863E-02
DAV:   3    -0.231549959431E+03    0.14247E-04   -0.44530E-04  5228   0.121E-01    0.640E-02
DAV:   4    -0.231549976983E+03   -0.17553E-04   -0.19485E-04  5312   0.162E-01    0.606E-02
DAV:   5    -0.231549923152E+03    0.53831E-04   -0.10265E-04  4764   0.139E-01    0.395E-02
DAV:   6    -0.231549908604E+03    0.14548E-04   -0.47980E-05  4104   0.681E-02    0.137E-02
DAV:   7    -0.231549908744E+03   -0.13970E-06   -0.16220E-05  3176   0.212E-02
  69 F= -.26026946E+03 E0= -.26027714E+03  d E =-.242680E-02
       N       E                     dE             d eps       ncg     rms          rms(c)
DAV:   1    -0.231550526509E+03   -0.61790E-03   -0.46476E-02  5772   0.971E-01    0.644E-02
DAV:   2    -0.231551079320E+03   -0.55281E-03   -0.56794E-03  4984   0.147E-01    0.418E-02
DAV:   3    -0.231551091005E+03   -0.11685E-04   -0.16452E-04  5152   0.556E-02    0.246E-02
DAV:   4    -0.231551090545E+03    0.46031E-06   -0.16767E-05  3512   0.282E-02
  70 F= -.26027063E+03 E0= -.26027834E+03  d E =-.116611E-02
       N       E                     dE             d eps       ncg     rms          rms(c)
DAV:   1    -0.231548583911E+03    0.25071E-02   -0.41722E-01  5766   0.292E+00    0.186E-01
DAV:   2    -0.231553521179E+03   -0.49373E-02   -0.50704E-02  5040   0.430E-01    0.115E-01
DAV:   3    -0.231553621306E+03   -0.10013E-03   -0.13732E-03  5310   0.159E-01    0.784E-02
DAV:   4    -0.231553629227E+03   -0.79207E-05   -0.20147E-04  5392   0.146E-01    0.731E-02
DAV:   5    -0.231553619317E+03    0.99090E-05   -0.10877E-04  4864   0.143E-01    0.609E-02
DAV:   6    -0.231553592079E+03    0.27239E-04   -0.47825E-05  4026   0.810E-02    0.185E-02
DAV:   7    -0.231553595846E+03   -0.37670E-05   -0.23594E-05  3552   0.243E-02
  71 F= -.26027307E+03 E0= -.26028082E+03  d E =-.360210E-02
       N       E                     dE             d eps       ncg     rms          rms(c)
DAV:   1    -0.231534057862E+03    0.19534E-01   -0.16685E+00  5862   0.581E+00    0.383E-01
DAV:   2    -0.231553817016E+03   -0.19759E-01   -0.20313E-01  5152   0.863E-01    0.225E-01
DAV:   3    -0.231554187399E+03   -0.37038E-03   -0.54924E-03  5284   0.282E-01    0.142E-01
DAV:   4    -0.231554157602E+03    0.29797E-04   -0.60493E-04  5560   0.178E-01    0.127E-01
DAV:   5    -0.231554251560E+03   -0.93958E-04   -0.28279E-04  5328   0.220E-01    0.110E-01
DAV:   6    -0.231554131115E+03    0.12045E-03   -0.25219E-04  5006   0.216E-01    0.449E-02
DAV:   7    -0.231554118745E+03    0.12370E-04   -0.92554E-05  5638   0.770E-02    0.172E-02
DAV:   8    -0.231554120284E+03   -0.15385E-05   -0.26709E-05  3760   0.223E-02
  72 F= -.26027336E+03 E0= -.26028120E+03  d E =-.389304E-02
       N       E                     dE             d eps       ncg     rms          rms(c)
DAV:   1    -0.231551437859E+03    0.26809E-02   -0.26559E-01  5750   0.232E+00    0.152E-01
DAV:   2    -0.231554581520E+03   -0.31437E-02   -0.32267E-02  5036   0.347E-01    0.938E-02
DAV:   3    -0.231554638732E+03   -0.57213E-04   -0.92100E-04  5242   0.125E-01    0.584E-02
DAV:   4    -0.231554628225E+03    0.10507E-04   -0.92835E-05  5320   0.624E-02    0.496E-02
DAV:   5    -0.231554632516E+03   -0.42904E-05   -0.25468E-05  3536   0.585E-02
  73 F= -.26027398E+03 E0= -.26028179E+03  d E =-.451294E-02
       N       E                     dE             d eps       ncg     rms          rms(c)
DAV:   1    -0.231553775621E+03    0.85260E-03   -0.12205E-01  5926   0.210E+00    0.150E-01
DAV:   2    -0.231556226816E+03   -0.24512E-02   -0.24622E-02  5138   0.326E-01    0.103E-01
DAV:   3    -0.231556470206E+03   -0.24339E-03   -0.16268E-03  5494   0.375E-01    0.129E-01
DAV:   4    -0.231556184040E+03    0.28617E-03   -0.35703E-04  5432   0.242E-01    0.455E-02
DAV:   5    -0.231556188538E+03   -0.44978E-05   -0.54815E-05  4944   0.496E-02
  74 F= -.26027534E+03 E0= -.26028324E+03  d E =-.136264E-02
       N       E                     dE             d eps       ncg     rms          rms(c)
DAV:   1    -0.231537528210E+03    0.18656E-01   -0.10984E+00  6038   0.631E+00    0.425E-01
DAV:   2    -0.231558961137E+03   -0.21433E-01   -0.22153E-01  5162   0.849E-01    0.269E-01
DAV:   3    -0.231559552479E+03   -0.59134E-03   -0.76807E-03  5364   0.490E-01    0.214E-01
DAV:   4    -0.231559389009E+03    0.16347E-03   -0.16365E-03  5516   0.449E-01    0.171E-01
DAV:   5    -0.231559220548E+03    0.16846E-03   -0.46307E-04  5636   0.283E-01    0.129E-01
DAV:   6    -0.231559205905E+03    0.14643E-04   -0.28548E-04  6376   0.149E-01    0.430E-02
DAV:   7    -0.231559217986E+03   -0.12080E-04   -0.11414E-04  5216   0.560E-02    0.231E-02
DAV:   8    -0.231559221680E+03   -0.36939E-05   -0.23027E-05  3592   0.278E-02
  75 F= -.26027762E+03 E0= -.26028575E+03  d E =-.364538E-02
       N       E                     dE             d eps       ncg     rms          rms(c)
DAV:   1    -0.231555258625E+03    0.39594E-02   -0.22596E-01  5926   0.285E+00    0.196E-01
DAV:   2    -0.231559657830E+03   -0.43992E-02   -0.45708E-02  5080   0.381E-01    0.117E-01
DAV:   3    -0.231559740651E+03   -0.82821E-04   -0.14557E-03  5220   0.146E-01    0.727E-02
DAV:   4    -0.231559731724E+03    0.89274E-05   -0.15626E-04  5424   0.822E-02    0.633E-02
DAV:   5    -0.231559765330E+03   -0.33606E-04   -0.63271E-05  4368   0.993E-02    0.479E-02
DAV:   6    -0.231559736621E+03    0.28709E-04   -0.58960E-05  3724   0.103E-01    0.251E-02
DAV:   7    -0.231559737584E+03   -0.96322E-06   -0.18486E-05  3330   0.364E-02
  76 F= -.26027773E+03 E0= -.26028598E+03  d E =-.375718E-02
       N       E                     dE             d eps       ncg     rms          rms(c)
DAV:   1    -0.231559827150E+03   -0.90529E-04   -0.43662E-02  6062   0.127E+00    0.884E-02
DAV:   2    -0.231560694230E+03   -0.86708E-03   -0.89538E-03  5064   0.166E-01    0.526E-02
DAV:   3    -0.231560718668E+03   -0.24438E-04   -0.30170E-04  5202   0.785E-02    0.335E-02
DAV:   4    -0.231560721349E+03   -0.26806E-05   -0.43941E-05  4008   0.676E-02
  77 F= -.26027861E+03 E0= -.26028689E+03  d E =-.871691E-03
       N       E                     dE             d eps       ncg     rms          rms(c)
DAV:   1    -0.231555492526E+03    0.52261E-02   -0.39322E-01  6062   0.381E+00    0.252E-01
DAV:   2    -0.231563387350E+03   -0.78948E-02   -0.80940E-02  5064   0.506E-01    0.170E-01
DAV:   3    -0.231563625902E+03   -0.23855E-03   -0.28882E-03  5422   0.311E-01    0.127E-01
DAV:   4    -0.231563585946E+03    0.39956E-04   -0.57637E-04  5620   0.275E-01    0.110E-01
DAV:   5    -0.231563523530E+03    0.62416E-04   -0.18954E-04  5238   0.184E-01    0.814E-02
DAV:   6    -0.231563512276E+03    0.11253E-04   -0.89904E-05  5234   0.787E-02    0.246E-02
DAV:   7    -0.231563518893E+03   -0.66168E-05   -0.28921E-05  4112   0.394E-02
  78 F= -.26028105E+03 E0= -.26028943E+03  d E =-.332055E-02
       N       E                     dE             d eps       ncg     rms          rms(c)
DAV:   1    -0.231536455875E+03    0.27056E-01   -0.15730E+00  6182   0.761E+00    0.531E-01
DAV:   2    -0.231568010305E+03   -0.31554E-01   -0.32528E-01  5176   0.996E-01    0.324E-01
DAV:   3    -0.231568803179E+03   -0.79287E-03   -0.11187E-02  5340   0.465E-01    0.209E-01
DAV:   4    -0.231568857749E+03   -0.54570E-04   -0.16664E-03  5534   0.398E-01    0.195E-01
DAV:   5    -0.231568731177E+03    0.12657E-03   -0.68761E-04  5548   0.348E-01    0.158E-01
DAV:   6    -0.231568643429E+03    0.87748E-04   -0.33081E-04  6462   0.218E-01    0.606E-02
DAV:   7    -0.231568645966E+03   -0.25372E-05   -0.15737E-04  6186   0.807E-02    0.249E-02
DAV:   8    -0.231568648872E+03   -0.29062E-05   -0.39047E-05  4360   0.348E-02
  79 F= -.26027204E+03 E0= -.26028060E+03  d E =0.569519E-02
       N       E                     dE             d eps       ncg     rms          rms(c)
DAV:   1    -0.231447361327E+03    0.12128E+00   -0.62863E+00  6222   0.152E+01    0.108E+00
DAV:   2    -0.231574373194E+03   -0.12701E+00   -0.13095E+00  5272   0.200E+00    0.642E-01
DAV:   3    -0.231577316886E+03   -0.29437E-02   -0.45011E-02  5666   0.832E-01    0.387E-01
DAV:   4    -0.231577058584E+03    0.25830E-03   -0.49334E-03  5600   0.430E-01    0.346E-01
DAV:   5    -0.231577070994E+03   -0.12410E-04   -0.93050E-04  5762   0.291E-01    0.206E-01
DAV:   6    -0.231577380613E+03   -0.30962E-03   -0.12568E-03  5692   0.446E-01    0.158E-01
DAV:   7    -0.231577038974E+03    0.34164E-03   -0.68912E-04  6716   0.336E-01    0.515E-02
DAV:   8    -0.231577011864E+03    0.27109E-04   -0.18413E-04  6356   0.985E-02    0.245E-02
DAV:   9    -0.231577020605E+03   -0.87407E-05   -0.51106E-05  4776   0.247E-02
  80 F= -.26027930E+03 E0= -.26028823E+03  d E =-.156916E-02
       N       E                     dE             d eps       ncg     rms          rms(c)
DAV:   1    -0.231056469981E+03    0.52054E+00   -0.25102E+01  6238   0.304E+01    0.230E+00
DAV:   2    -0.231574572048E+03   -0.51810E+00   -0.53399E+00  5352   0.407E+00    0.132E+00
DAV:   3    -0.231586487953E+03   -0.11916E-01   -0.19333E-01  6402   0.174E+00    0.844E-01
DAV:   4    -0.231585476805E+03    0.10111E-02   -0.22718E-02  5784   0.920E-01    0.742E-01
DAV:   5    -0.231585475856E+03    0.94855E-06   -0.40582E-03  5586   0.646E-01    0.503E-01
DAV:   6    -0.231587013558E+03   -0.15377E-02   -0.61720E-03  5602   0.102E+00    0.369E-01
DAV:   7    -0.231585137379E+03    0.18762E-02   -0.35411E-03  6990   0.740E-01    0.105E-01
DAV:   8    -0.231585053479E+03    0.83900E-04   -0.10458E-03  6500   0.203E-01    0.696E-02
DAV:   9    -0.231585091356E+03   -0.37877E-04   -0.27879E-04  5136   0.454E-02    0.561E-02
DAV:  10    -0.231585090265E+03    0.10910E-05   -0.36905E-05  4376   0.371E-02
  81 F= -.26028843E+03 E0= -.26029798E+03  d E =-.106953E-01
       N       E                     dE             d eps       ncg     rms          rms(c)
DAV:   1    -0.231551730068E+03    0.33361E-01   -0.24541E+00  5942   0.778E+00    0.606E-01
DAV:   2    -0.231594633564E+03   -0.42903E-01   -0.44165E-01  5048   0.111E+00    0.383E-01
DAV:   3    -0.231595417569E+03   -0.78401E-03   -0.14618E-02  5408   0.472E-01    0.230E-01
DAV:   4    -0.231595310637E+03    0.10693E-03   -0.19044E-03  5448   0.289E-01    0.206E-01
DAV:   5    -0.231595634771E+03   -0.32413E-03   -0.86630E-04  5550   0.389E-01    0.194E-01
DAV:   6    -0.231595159076E+03    0.47569E-03   -0.78144E-04  5522   0.362E-01    0.653E-02
DAV:   7    -0.231595145577E+03    0.13499E-04   -0.22757E-04  6468   0.104E-01    0.282E-02
DAV:   8    -0.231595144126E+03    0.14515E-05   -0.68783E-05  4680   0.396E-02
  82 F= -.26029925E+03 E0= -.26030879E+03  d E =-.108160E-01
       N       E                     dE             d eps       ncg     rms          rms(c)
DAV:   1    -0.231577273672E+03    0.17872E-01   -0.10254E+00  5900   0.503E+00    0.389E-01
DAV:   2    -0.231595061311E+03   -0.17788E-01   -0.18316E-01  5048   0.712E-01    0.243E-01
DAV:   3    -0.231595385291E+03   -0.32398E-03   -0.60328E-03  5464   0.293E-01    0.147E-01
DAV:   4    -0.231595330092E+03    0.55199E-04   -0.73012E-04  5616   0.163E-01    0.130E-01
DAV:   5    -0.231595301046E+03    0.29046E-04   -0.18094E-04  5200   0.129E-01    0.672E-02
DAV:   6    -0.231595326022E+03   -0.24976E-04   -0.19546E-04  5064   0.175E-01    0.554E-02
DAV:   7    -0.231595275567E+03    0.50455E-04   -0.83699E-05  4310   0.113E-01    0.154E-02
DAV:   8    -0.231595276234E+03   -0.66706E-06   -0.21615E-05  3536   0.295E-02
  83 F= -.26029992E+03 E0= -.26030947E+03  d E =-.114936E-01
       N       E                     dE             d eps       ncg     rms          rms(c)
DAV:   1    -0.231584032577E+03    0.11243E-01   -0.72091E-01  5944   0.490E+00    0.356E-01
DAV:   2    -0.231599544973E+03   -0.15512E-01   -0.15894E-01  5040   0.673E-01    0.209E-01
DAV:   3    -0.231599968169E+03   -0.42320E-03   -0.53511E-03  5276   0.328E-01    0.145E-01
DAV:   4    -0.231599981597E+03   -0.13428E-04   -0.89725E-04  5504   0.301E-01    0.132E-01
DAV:   5    -0.231599878253E+03    0.10334E-03   -0.26711E-04  5204   0.214E-01    0.101E-01
DAV:   6    -0.231599856131E+03    0.22122E-04   -0.11323E-04  5666   0.107E-01    0.417E-02
DAV:   7    -0.231599859603E+03   -0.34715E-05   -0.60822E-05  4686   0.403E-02
  84 F= -.26030479E+03 E0= -.26031439E+03  d E =-.487052E-02
       N       E                     dE             d eps       ncg     rms          rms(c)
DAV:   1    -0.231464035909E+03    0.13582E+00   -0.64823E+00  6106   0.147E+01    0.111E+00
DAV:   2    -0.231604409629E+03   -0.14037E+00   -0.14420E+00  5154   0.202E+00    0.626E-01
DAV:   3    -0.231608053147E+03   -0.36435E-02   -0.49480E-02  5842   0.819E-01    0.399E-01
DAV:   4    -0.231607892517E+03    0.16063E-03   -0.56965E-03  5624   0.515E-01    0.353E-01
DAV:   5    -0.231608180014E+03   -0.28750E-03   -0.16620E-03  5628   0.502E-01    0.314E-01
DAV:   6    -0.231607751040E+03    0.42897E-03   -0.12705E-03  5540   0.468E-01    0.154E-01
DAV:   7    -0.231607695487E+03    0.55553E-04   -0.63221E-04  7334   0.222E-01    0.513E-02
DAV:   8    -0.231607675660E+03    0.19826E-04   -0.25478E-04  5730   0.865E-02    0.302E-02
DAV:   9    -0.231607680950E+03   -0.52899E-05   -0.48557E-05  4816   0.223E-02
  85 F= -.26031378E+03 E0= -.26032356E+03  d E =-.138524E-01
       N       E                     dE             d eps       ncg     rms          rms(c)
DAV:   1    -0.231004737301E+03    0.60294E+00   -0.25895E+01  6148   0.293E+01    0.241E+00
DAV:   2    -0.231587052132E+03   -0.58231E+00   -0.59750E+00  5362   0.418E+00    0.137E+00
DAV:   3    -0.231592665266E+03   -0.56131E-02   -0.13331E-01  6506   0.167E+00    0.907E-01
DAV:   4    -0.231590714508E+03    0.19508E-02   -0.16554E-02  5530   0.896E-01    0.759E-01
DAV:   5    -0.231590252785E+03    0.46172E-03   -0.34516E-03  5298   0.350E-01    0.449E-01
DAV:   6    -0.231590663379E+03   -0.41059E-03   -0.22781E-03  6052   0.390E-01    0.165E-01
DAV:   7    -0.231590687068E+03   -0.23689E-04   -0.11930E-03  5970   0.337E-01    0.956E-02
DAV:   8    -0.231590618609E+03    0.68458E-04   -0.37024E-04  6010   0.184E-01    0.710E-02
DAV:   9    -0.231590624004E+03   -0.53947E-05   -0.94819E-05  5016   0.562E-02
  86 F= -.26029993E+03 E0= -.26031000E+03  d E =-.221261E-05
       N       E                     dE             d eps       ncg     rms          rms(c)
DAV:   1    -0.231253252799E+03    0.33737E+00   -0.15766E+01  6132   0.229E+01    0.182E+00
DAV:   2    -0.231600612654E+03   -0.34736E+00   -0.35633E+00  5240   0.324E+00    0.102E+00
DAV:   3    -0.231610296680E+03   -0.96840E-02   -0.13131E-01  6132   0.154E+00    0.720E-01
DAV:   4    -0.231610140816E+03    0.15586E-03   -0.20752E-02  5552   0.135E+00    0.640E-01
DAV:   5    -0.231608386054E+03    0.17548E-02   -0.65955E-03  5558   0.102E+00    0.514E-01
DAV:   6    -0.231607839439E+03    0.54662E-03   -0.27271E-03  6788   0.536E-01    0.252E-01
DAV:   7    -0.231607965930E+03   -0.12649E-03   -0.15616E-03  6222   0.246E-01    0.830E-02
DAV:   8    -0.231607964426E+03    0.15039E-05   -0.57025E-04  5184   0.125E-01    0.625E-02
DAV:   9    -0.231607966678E+03   -0.22517E-05   -0.91263E-05  5232   0.397E-02
  87 F= -.26031469E+03 E0= -.26032454E+03  d E =-.147629E-01
       N       E                     dE             d eps       ncg     rms          rms(c)
DAV:   1    -0.231609735081E+03   -0.17707E-02   -0.18195E-01  5828   0.188E+00    0.165E-01
DAV:   2    -0.231611921269E+03   -0.21862E-02   -0.22726E-02  5018   0.316E-01    0.122E-01
DAV:   3    -0.231612047626E+03   -0.12636E-03   -0.13533E-03  5506   0.346E-01    0.128E-01
DAV:   4    -0.231611811969E+03    0.23566E-03   -0.46731E-04  5546   0.269E-01    0.611E-02
DAV:   5    -0.231611767933E+03    0.44036E-04   -0.99899E-05  5210   0.105E-01    0.459E-02
DAV:   6    -0.231611750449E+03    0.17484E-04   -0.81280E-05  4754   0.557E-02    0.187E-02
DAV:   7    -0.231611749015E+03    0.14340E-05   -0.21997E-05  3440   0.282E-02
  88 F= -.26031825E+03 E0= -.26032816E+03  d E =-.356731E-02
       N       E                     dE             d eps       ncg     rms          rms(c)
DAV:   1    -0.231611817754E+03   -0.67305E-04   -0.42140E-02  5842   0.902E-01    0.785E-02
DAV:   2    -0.231612318913E+03   -0.50116E-03   -0.53782E-03  5024   0.140E-01    0.560E-02
DAV:   3    -0.231612309411E+03    0.95021E-05   -0.18099E-04  5376   0.640E-02    0.320E-02
DAV:   4    -0.231612300730E+03    0.86809E-05   -0.35972E-05  4216   0.388E-02
  89 F= -.26031870E+03 E0= -.26032864E+03  d E =-.401770E-02
       N       E                     dE             d eps       ncg     rms          rms(c)
DAV:   1    -0.231610913573E+03    0.13958E-02   -0.12869E-01  6262   0.257E+00    0.157E-01
DAV:   2    -0.231614313867E+03   -0.34003E-02   -0.34436E-02  5004   0.350E-01    0.902E-02
DAV:   3    -0.231614494295E+03   -0.18043E-03   -0.12696E-03  5426   0.268E-01    0.101E-01
DAV:   4    -0.231614353863E+03    0.14043E-03   -0.23083E-04  5328   0.178E-01    0.512E-02
DAV:   5    -0.231614353067E+03    0.79558E-06   -0.32270E-05  3854   0.364E-02
  90 F= -.26032057E+03 E0= -.26033050E+03  d E =-.186483E-02
       N       E                     dE             d eps       ncg     rms          rms(c)
DAV:   1    -0.231587213623E+03    0.27140E-01   -0.11564E+00  6384   0.771E+00    0.456E-01
DAV:   2    -0.231617636232E+03   -0.30423E-01   -0.31008E-01  4994   0.101E+00    0.245E-01
DAV:   3    -0.231618319233E+03   -0.68300E-03   -0.78790E-03  5682   0.364E-01    0.187E-01
DAV:   4    -0.231618198886E+03    0.12035E-03   -0.91523E-04  5978   0.274E-01    0.164E-01
DAV:   5    -0.231618129540E+03    0.69346E-04   -0.17674E-04  6384   0.140E-01    0.128E-01
DAV:   6    -0.231618116218E+03    0.13322E-04   -0.95124E-05  5322   0.792E-02    0.769E-02
DAV:   7    -0.231618122026E+03   -0.58075E-05   -0.66880E-05  5112   0.570E-02
  91 F= -.26032377E+03 E0= -.26033368E+03  d E =-.507130E-02
       N       E                     dE             d eps       ncg     rms          rms(c)
DAV:   1    -0.231613555811E+03    0.45604E-02   -0.18861E-01  6264   0.312E+00    0.194E-01
DAV:   2    -0.231618519288E+03   -0.49635E-02   -0.50793E-02  4848   0.410E-01    0.914E-02
DAV:   3    -0.231618625552E+03   -0.10626E-03   -0.12389E-03  5888   0.112E-01    0.643E-02
DAV:   4    -0.231618625365E+03    0.18650E-06   -0.99948E-05  4684   0.896E-02
  92 F= -.26032405E+03 E0= -.26033397E+03  d E =-.534742E-02
       N       E                     dE             d eps       ncg     rms          rms(c)
DAV:   1    -0.231612775958E+03    0.58496E-02   -0.16033E-01  6874   0.376E+00    0.211E-01
DAV:   2    -0.231619750889E+03   -0.69749E-02   -0.70285E-02  5034   0.453E-01    0.149E-01
DAV:   3    -0.231620005521E+03   -0.25463E-03   -0.24759E-03  5518   0.323E-01    0.133E-01
DAV:   4    -0.231619831691E+03    0.17383E-03   -0.34168E-04  5344   0.208E-01    0.952E-02
DAV:   5    -0.231619820888E+03    0.10803E-04   -0.51111E-05  4622   0.556E-02    0.759E-02
DAV:   6    -0.231619822196E+03   -0.13073E-05   -0.33455E-05  4328   0.328E-02
  93 F= -.26032499E+03 E0= -.26033492E+03  d E =-.935680E-03
       N       E                     dE             d eps       ncg     rms          rms(c)
DAV:   1    -0.231558357001E+03    0.61464E-01   -0.14384E+00  6920   0.113E+01    0.750E-01
DAV:   2    -0.231620511730E+03   -0.62155E-01   -0.63706E-01  5040   0.130E+00    0.351E-01
DAV:   3    -0.231622195907E+03   -0.16842E-02   -0.18982E-02  6464   0.351E-01    0.247E-01
DAV:   4    -0.231622144919E+03    0.50988E-04   -0.13234E-03  5432   0.208E-01    0.223E-01
DAV:   5    -0.231622052428E+03    0.92491E-04   -0.19520E-04  5252   0.160E-01    0.194E-01
DAV:   6    -0.231622030194E+03    0.22234E-04   -0.94909E-05  4940   0.112E-01    0.146E-01
DAV:   7    -0.231622020365E+03    0.98299E-05   -0.17599E-04  6144   0.105E-01    0.241E-02
DAV:   8    -0.231622026743E+03   -0.63782E-05   -0.94309E-05  5160   0.318E-02
  94 F= -.26032642E+03 E0= -.26033641E+03  d E =-.237156E-02
       N       E                     dE             d eps       ncg     rms          rms(c)
DAV:   1    -0.231620982390E+03    0.10380E-02   -0.38899E-02  6786   0.179E+00    0.122E-01
DAV:   2    -0.231622609254E+03   -0.16269E-02   -0.16648E-02  4960   0.214E-01    0.593E-02
DAV:   3    -0.231622676734E+03   -0.67480E-04   -0.55310E-04  5276   0.123E-01    0.527E-02
DAV:   4    -0.231622652677E+03    0.24057E-04   -0.67062E-05  4014   0.990E-02    0.377E-02
DAV:   5    -0.231622648413E+03    0.42641E-05   -0.12282E-05  3052   0.429E-02
  95 F= -.26032693E+03 E0= -.26033692E+03  d E =-.507893E-03
       N       E                     dE             d eps       ncg     rms          rms(c)
DAV:   1    -0.231609248478E+03    0.13404E-01   -0.35116E-01  6816   0.538E+00    0.347E-01
DAV:   2    -0.231623866386E+03   -0.14618E-01   -0.14939E-01  4900   0.626E-01    0.173E-01
DAV:   3    -0.231624241596E+03   -0.37521E-03   -0.43188E-03  5546   0.207E-01    0.124E-01
DAV:   4    -0.231624230706E+03    0.10890E-04   -0.40379E-04  5442   0.167E-01    0.115E-01
DAV:   5    -0.231624184989E+03    0.45717E-04   -0.75700E-05  4584   0.106E-01    0.936E-02
DAV:   6    -0.231624178234E+03    0.67553E-05   -0.29278E-05  3768   0.464E-02
  96 F= -.26032812E+03 E0= -.26033810E+03  d E =-.169705E-02
       N       E                     dE             d eps       ncg     rms          rms(c)
DAV:   1    -0.231565725611E+03    0.58459E-01   -0.14037E+00  6880   0.108E+01    0.723E-01
DAV:   2    -0.231624210629E+03   -0.58485E-01   -0.59906E-01  4992   0.125E+00    0.333E-01
DAV:   3    -0.231625812632E+03   -0.16020E-02   -0.17505E-02  6730   0.369E-01    0.242E-01
DAV:   4    -0.231625805135E+03    0.74974E-05   -0.14684E-03  5620   0.294E-01    0.225E-01
DAV:   5    -0.231625634342E+03    0.17079E-03   -0.27799E-04  5324   0.201E-01    0.185E-01
DAV:   6    -0.231625624304E+03    0.10038E-04   -0.10215E-04  5212   0.933E-02    0.130E-01
DAV:   7    -0.231625633217E+03   -0.89128E-05   -0.15031E-04  5072   0.792E-02    0.267E-02
DAV:   8    -0.231625634676E+03   -0.14585E-05   -0.71786E-05  4976   0.386E-02
  97 F= -.26032890E+03 E0= -.26033886E+03  d E =-.247518E-02
       N       E                     dE             d eps       ncg     rms          rms(c)
DAV:   1    -0.231624035322E+03    0.15979E-02   -0.35977E-02  6802   0.172E+00    0.113E-01
DAV:   2    -0.231625526255E+03   -0.14909E-02   -0.15194E-02  4910   0.202E-01    0.561E-02
DAV:   3    -0.231625571987E+03   -0.45732E-04   -0.47530E-04  5158   0.104E-01    0.466E-02
DAV:   4    -0.231625557871E+03    0.14117E-04   -0.59389E-05  3870   0.722E-02    0.367E-02
DAV:   5    -0.231625554369E+03    0.35015E-05   -0.58825E-06  2974   0.225E-02
  98 F= -.26032893E+03 E0= -.26033889E+03  d E =-.250306E-02
       N       E                     dE             d eps       ncg     rms          rms(c)
DAV:   1    -0.231623562174E+03    0.19957E-02   -0.56370E-02  6702   0.209E+00    0.159E-01
DAV:   2    -0.231625867469E+03   -0.23053E-02   -0.23745E-02  4976   0.251E-01    0.577E-02
DAV:   3    -0.231625956532E+03   -0.89063E-04   -0.77041E-04  5280   0.116E-01    0.508E-02
DAV:   4    -0.231625938734E+03    0.17798E-04   -0.64595E-05  4200   0.934E-02    0.371E-02
DAV:   5    -0.231625931910E+03    0.68238E-05   -0.11061E-05  3094   0.389E-02
  99 F= -.26032917E+03 E0= -.26033914E+03  d E =-.247269E-03
       N       E                     dE             d eps       ncg     rms          rms(c)
DAV:   1    -0.231605317435E+03    0.20621E-01   -0.50819E-01  6768   0.631E+00    0.411E-01
DAV:   2    -0.231626148272E+03   -0.20831E-01   -0.21295E-01  4910   0.742E-01    0.207E-01
DAV:   3    -0.231626685306E+03   -0.53703E-03   -0.62427E-03  5726   0.227E-01    0.145E-01
DAV:   4    -0.231626677928E+03    0.73786E-05   -0.54586E-04  5432   0.166E-01    0.135E-01
DAV:   5    -0.231626626374E+03    0.51554E-04   -0.94421E-05  4990   0.116E-01    0.115E-01
DAV:   6    -0.231626617621E+03    0.87535E-05   -0.33960E-05  3868   0.587E-02
 100 F= -.26032947E+03 E0= -.26033947E+03  d E =-.545094E-03
       N       E                     dE             d eps       ncg     rms          rms(c)
DAV:   1    -0.231626241767E+03    0.38461E-03   -0.14002E-02  6568   0.111E+00    0.653E-02
DAV:   2    -0.231626761131E+03   -0.51936E-03   -0.51986E-03  5048   0.147E-01    0.433E-02
DAV:   3    -0.231626803104E+03   -0.41973E-04   -0.26421E-04  5294   0.147E-01    0.494E-02
DAV:   4    -0.231626761161E+03    0.41944E-04   -0.54311E-05  3622   0.955E-02    0.209E-02
DAV:   5    -0.231626761450E+03   -0.28894E-06   -0.74251E-06  2996   0.205E-02
 101 F= -.26032960E+03 E0= -.26033960E+03  d E =-.129771E-03
       N       E                     dE             d eps       ncg     rms          rms(c)
DAV:   1    -0.231622226006E+03    0.45352E-02   -0.12306E-01  6496   0.324E+00    0.190E-01
DAV:   2    -0.231626917638E+03   -0.46916E-02   -0.47936E-02  4902   0.386E-01    0.101E-01
DAV:   3    -0.231627045295E+03   -0.12766E-03   -0.14181E-03  5274   0.161E-01    0.788E-02
DAV:   4    -0.231627022664E+03    0.22631E-04   -0.15270E-04  5320   0.126E-01    0.673E-02
DAV:   5    -0.231627006105E+03    0.16558E-04   -0.28703E-05  3472   0.637E-02    0.531E-02
DAV:   6    -0.231627002265E+03    0.38405E-05   -0.19815E-05  3290   0.278E-02
 102 F= -.26032980E+03 E0= -.26033979E+03  d E =-.328418E-03
       N       E                     dE             d eps       ncg     rms          rms(c)
DAV:   1    -0.231607693510E+03    0.19313E-01   -0.49247E-01  6632   0.649E+00    0.390E-01
DAV:   2    -0.231626353475E+03   -0.18660E-01   -0.19099E-01  4912   0.771E-01    0.197E-01
DAV:   3    -0.231626824687E+03   -0.47121E-03   -0.55667E-03  5420   0.280E-01    0.143E-01
DAV:   4    -0.231626808479E+03    0.16208E-04   -0.50117E-04  5478   0.213E-01    0.128E-01
DAV:   5    -0.231626745267E+03    0.63212E-04   -0.13810E-04  5406   0.142E-01    0.101E-01
DAV:   6    -0.231626722330E+03    0.22938E-04   -0.58931E-05  4796   0.647E-02    0.610E-02
DAV:   7    -0.231626724356E+03   -0.20268E-05   -0.47345E-05  4490   0.412E-02
 103 F= -.26032944E+03 E0= -.26033943E+03  d E =0.334744E-04
       N       E                     dE             d eps       ncg     rms          rms(c)
DAV:   1    -0.231615382600E+03    0.11340E-01   -0.30088E-01  6536   0.506E+00    0.313E-01
DAV:   2    -0.231626798095E+03   -0.11415E-01   -0.11694E-01  4848   0.602E-01    0.149E-01
DAV:   3    -0.231627075406E+03   -0.27731E-03   -0.34417E-03  5368   0.190E-01    0.103E-01
DAV:   4    -0.231627062254E+03    0.13152E-04   -0.22856E-04  5500   0.109E-01    0.921E-02
DAV:   5    -0.231627047315E+03    0.14939E-04   -0.46633E-05  3850   0.823E-02    0.778E-02
DAV:   6    -0.231627032389E+03    0.14926E-04   -0.22526E-05  3216   0.552E-02    0.516E-02
DAV:   7    -0.231627033767E+03   -0.13784E-05   -0.53934E-05  4796   0.363E-02
 104 F= -.26032981E+03 E0= -.26033980E+03  d E =-.341498E-03
       N       E                     dE             d eps       ncg     rms          rms(c)
DAV:   1    -0.231626811371E+03    0.22102E-03   -0.74332E-03  6570   0.828E-01    0.503E-02
DAV:   2    -0.231627104298E+03   -0.29293E-03   -0.29766E-03  5072   0.101E-01    0.276E-02
DAV:   3    -0.231627118194E+03   -0.13896E-04   -0.11800E-04  4630   0.756E-02    0.288E-02
DAV:   4    -0.231627108671E+03    0.95228E-05   -0.18390E-05  3390   0.493E-02
 105 F= -.26032989E+03 E0= -.26033988E+03  d E =-.753497E-04
       N       E                     dE             d eps       ncg     rms          rms(c)
DAV:   1    -0.231624570223E+03    0.25480E-02   -0.66384E-02  6488   0.248E+00    0.138E-01
DAV:   2    -0.231627209042E+03   -0.26388E-02   -0.26921E-02  4892   0.289E-01    0.773E-02
DAV:   3    -0.231627264140E+03   -0.55098E-04   -0.74418E-04  5046   0.884E-02    0.563E-02
DAV:   4    -0.231627262079E+03    0.20608E-05   -0.64840E-05  4088   0.657E-02
 106 F= -.26033004E+03 E0= -.26034006E+03  d E =-.230312E-03
       N       E                     dE             d eps       ncg     rms          rms(c)
DAV:   1    -0.231616449484E+03    0.10815E-01   -0.26544E-01  6576   0.496E+00    0.263E-01
DAV:   2    -0.231627006763E+03   -0.10557E-01   -0.10729E-01  4988   0.581E-01    0.167E-01
DAV:   3    -0.231627252933E+03   -0.24617E-03   -0.29905E-03  5368   0.266E-01    0.134E-01
DAV:   4    -0.231627170717E+03    0.82216E-04   -0.35162E-04  5440   0.186E-01    0.112E-01
DAV:   5    -0.231627141578E+03    0.29139E-04   -0.61957E-05  4142   0.879E-02    0.868E-02
DAV:   6    -0.231627129069E+03    0.12509E-04   -0.88168E-05  5456   0.665E-02    0.350E-02
DAV:   7    -0.231627131682E+03   -0.26131E-05   -0.27536E-05  3888   0.363E-02
 107 F= -.26032992E+03 E0= -.26033996E+03  d E =-.103688E-03
       N       E                     dE             d eps       ncg     rms          rms(c)
DAV:   1    -0.231622622832E+03    0.45062E-02   -0.11575E-01  6494   0.327E+00    0.201E-01
DAV:   2    -0.231627190403E+03   -0.45676E-02   -0.46622E-02  4980   0.392E-01    0.994E-02
DAV:   3    -0.231627374184E+03   -0.18378E-03   -0.15771E-03  5234   0.240E-01    0.951E-02
DAV:   4    -0.231627279762E+03    0.94422E-04   -0.22251E-04  5368   0.162E-01    0.605E-02
DAV:   5    -0.231627272790E+03    0.69714E-05   -0.28847E-05  3638   0.484E-02
 108 F= -.26033005E+03 E0= -.26034007E+03  d E =-.242189E-03
       N       E                     dE             d eps       ncg     rms          rms(c)
DAV:   1    -0.231627218371E+03    0.61391E-04   -0.14289E-03  7600   0.373E-01    0.176E-02
DAV:   2    -0.231627284153E+03   -0.65783E-04   -0.53784E-04  6520   0.789E-02    0.386E-02
DAV:   3    -0.231627273354E+03    0.10800E-04   -0.53594E-05  4708   0.458E-02    0.259E-02
DAV:   4    -0.231627273588E+03   -0.23376E-06   -0.60257E-06  2736   0.552E-03
 109 F= -.26033005E+03 E0= -.26034007E+03  d E =-.242726E-03
       N       E                     dE             d eps       ncg     rms          rms(c)
DAV:   1    -0.231627263280E+03    0.10074E-04   -0.27639E-04  6388   0.161E-01    0.359E-02
DAV:   2    -0.231627291289E+03   -0.28009E-04   -0.12754E-04  5578   0.861E-02    0.359E-02
DAV:   3    -0.231627286714E+03    0.45751E-05   -0.86783E-05  4728   0.116E-01
 110 F= -.26033007E+03 E0= -.26034008E+03  d E =-.255968E-03
       N       E                     dE             d eps       ncg     rms          rms(c)
DAV:   1    -0.231627265083E+03    0.26206E-04   -0.16345E-04  6296   0.151E-01    0.106E-02
DAV:   2    -0.231627275197E+03   -0.10114E-04   -0.73523E-05  4978   0.475E-02    0.190E-02
DAV:   3    -0.231627271813E+03    0.33835E-05   -0.16434E-05  3160   0.429E-02
 111 F= -.26033005E+03 E0= -.26034007E+03  d E =-.240975E-03
       N       E                     dE             d eps       ncg     rms          rms(c)
DAV:   1    -0.231627269161E+03    0.60359E-05   -0.31476E-05  3606   0.669E-02    0.768E-03
DAV:   2    -0.231627271258E+03   -0.20969E-05   -0.23568E-05  2988   0.901E-03
 112 F= -.26033005E+03 E0= -.26034007E+03  d E =-.240466E-03
       N       E                     dE             d eps       ncg     rms          rms(c)
DAV:   1    -0.231627271538E+03   -0.23767E-05   -0.30936E-06  2790   0.220E-02    0.484E-03
DAV:   2    -0.231627274627E+03   -0.30890E-05   -0.61979E-06  3120   0.320E-02
 113 F= -.26033006E+03 E0= -.26034007E+03  d E =-.243821E-03
       N       E                     dE             d eps       ncg     rms          rms(c)
DAV:   1    -0.231627271386E+03    0.15157E-06   -0.48838E-06  3048   0.315E-02    0.155E-03
DAV:   2    -0.231627271687E+03   -0.30105E-06   -0.79294E-07  2734   0.102E-02
 114 F= -.26033005E+03 E0= -.26034007E+03  d E =-.240890E-03
       N       E                     dE             d eps       ncg     rms          rms(c)
DAV:   1    -0.231627229195E+03    0.42191E-04   -0.23634E-03  6158   0.394E-01    0.236E-02
DAV:   2    -0.231627299005E+03   -0.69810E-04   -0.71635E-04  4860   0.499E-02    0.110E-02
DAV:   3    -0.231627300420E+03   -0.14156E-05   -0.17875E-05  3288   0.120E-02
 115 F= -.26033011E+03 E0= -.26034012E+03  d E =-.524840E-04
       N       E                     dE             d eps       ncg     rms          rms(c)
DAV:   1    -0.231626717792E+03    0.58121E-03   -0.21217E-02  6152   0.118E+00    0.648E-02
DAV:   2    -0.231627352136E+03   -0.63434E-03   -0.64652E-03  4864   0.149E-01    0.362E-02
DAV:   3    -0.231627364185E+03   -0.12049E-04   -0.16106E-04  3648   0.372E-02    0.260E-02
DAV:   4    -0.231627364111E+03    0.74739E-07   -0.15000E-05  3432   0.281E-02
 116 F= -.26033024E+03 E0= -.26034026E+03  d E =-.187428E-03
       N       E                     dE             d eps       ncg     rms          rms(c)
DAV:   1    -0.231624811221E+03    0.25530E-02   -0.84863E-02  6152   0.237E+00    0.124E-01
DAV:   2    -0.231627331056E+03   -0.25198E-02   -0.25608E-02  4872   0.296E-01    0.753E-02
DAV:   3    -0.231627379668E+03   -0.48612E-04   -0.64009E-04  5320   0.923E-02    0.570E-02
DAV:   4    -0.231627374872E+03    0.47956E-05   -0.61739E-05  3994   0.695E-02
 117 F= -.26033039E+03 E0= -.26034041E+03  d E =-.340735E-03
       N       E                     dE             d eps       ncg     rms          rms(c)
DAV:   1    -0.231616690252E+03    0.10689E-01   -0.33929E-01  6256   0.473E+00    0.246E-01
DAV:   2    -0.231626772643E+03   -0.10082E-01   -0.10245E-01  4920   0.592E-01    0.151E-01
DAV:   3    -0.231626959289E+03   -0.18665E-03   -0.25454E-03  6062   0.171E-01    0.112E-01
DAV:   4    -0.231626951829E+03    0.74608E-05   -0.23976E-04  5480   0.133E-01    0.104E-01
DAV:   5    -0.231626919313E+03    0.32516E-04   -0.49638E-05  3502   0.880E-02    0.806E-02
DAV:   6    -0.231626909725E+03    0.95877E-05   -0.51329E-05  4638   0.583E-02
 118 F= -.26033021E+03 E0= -.26034023E+03  d E =-.160693E-03
       N       E                     dE             d eps       ncg     rms          rms(c)
DAV:   1    -0.231622526791E+03    0.43925E-02   -0.15682E-01  6160   0.320E+00    0.196E-01
DAV:   2    -0.231627211398E+03   -0.46846E-02   -0.47730E-02  4958   0.415E-01    0.954E-02
DAV:   3    -0.231627388968E+03   -0.17757E-03   -0.14931E-03  5328   0.239E-01    0.947E-02
DAV:   4    -0.231627296040E+03    0.92928E-04   -0.22833E-04  5376   0.160E-01    0.580E-02
DAV:   5    -0.231627290325E+03    0.57148E-05   -0.31356E-05  3672   0.426E-02
 119 F= -.26033040E+03 E0= -.26034042E+03  d E =-.347500E-03
       N       E                     dE             d eps       ncg     rms          rms(c)
DAV:   1    -0.231626654167E+03    0.64187E-03   -0.16331E-02  6328   0.111E+00    0.824E-02
DAV:   2    -0.231627219972E+03   -0.56581E-03   -0.58589E-03  5008   0.146E-01    0.307E-02
DAV:   3    -0.231627240432E+03   -0.20460E-04   -0.19260E-04  5040   0.764E-02    0.271E-02
DAV:   4    -0.231627235796E+03    0.46361E-05   -0.31090E-05  3598   0.631E-02
 120 F= -.26033044E+03 E0= -.26034047E+03  d E =-.389425E-04
       N       E                     dE             d eps       ncg     rms          rms(c)
DAV:   1    -0.231626744018E+03    0.49641E-03   -0.11741E-02  6368   0.955E-01    0.476E-02
DAV:   2    -0.231627150108E+03   -0.40609E-03   -0.41306E-03  4944   0.116E-01    0.339E-02
DAV:   3    -0.231627155629E+03   -0.55209E-05   -0.10632E-04  3690   0.310E-02    0.251E-02
DAV:   4    -0.231627155273E+03    0.35670E-06   -0.94605E-06  3192   0.232E-02
 121 F= -.26033044E+03 E0= -.26034048E+03  d E =-.374356E-04
       N       E                     dE             d eps       ncg     rms          rms(c)
DAV:   1    -0.231626988316E+03    0.16731E-03   -0.44796E-03  6294   0.554E-01    0.190E-02
DAV:   2    -0.231627133915E+03   -0.14560E-03   -0.14372E-03  5006   0.759E-02    0.285E-02
DAV:   3    -0.231627134153E+03   -0.23819E-06   -0.49487E-05  3758   0.461E-02
 122 F= -.26033047E+03 E0= -.26034050E+03  d E =-.307831E-04
       N       E                     dE             d eps       ncg     rms          rms(c)
DAV:   1    -0.231626027326E+03    0.11066E-02   -0.31093E-02  6232   0.145E+00    0.709E-02
DAV:   2    -0.231627026895E+03   -0.99957E-03   -0.10135E-02  4944   0.181E-01    0.518E-02
DAV:   3    -0.231627043451E+03   -0.16556E-04   -0.25871E-04  4034   0.545E-02    0.402E-02
DAV:   4    -0.231627040927E+03    0.25243E-05   -0.24135E-05  3432   0.397E-02
 123 F= -.26033051E+03 E0= -.26034054E+03  d E =-.742513E-04
