50% Ag CO adsorption                    
            1
    10.281333    0.000000    0.000000
     5.140666    8.903895    0.000000
     0.000000    0.000000   36.296005
   Ag   Cu   C    O 
     8    56     1     1
Direct configuration=     1
   0.49550394  0.25964653  0.59000499
   0.99505080  0.25900822  0.58947797
   0.24594099  0.25900822  0.58947797
   0.74484953  0.25964653  0.59000499
   0.00662615  0.98705626  0.59091490
   0.25636318  0.98727364  0.59029665
   0.50631759  0.98705626  0.59091490
   0.75671833  0.98656334  0.58918671
   0.66639377  0.66649674  0.52501887
   0.41676423  0.66647153  0.52499447
   0.16710950  0.66649674  0.52501887
   0.91707680  0.66584640  0.52533850
   0.00000000  0.00000000  0.41326863
   0.66814437  0.41406878  0.52565207
   0.41778685  0.41406878  0.52565207
   0.16437417  0.41773433  0.52674475
   0.91789149  0.41773433  0.52674475
   0.66761010  0.16477980  0.52674079
   0.41727615  0.16520629  0.52701169
   0.91724387  0.91632308  0.52611562
   0.16638877  0.91735012  0.52645141
   0.66643305  0.91632308  0.52611562
   0.16693794  0.16612413  0.52690667
   0.99442725  0.51114550  0.58348504
   0.24913180  0.50915559  0.58069102
   0.49565766  0.50868468  0.58078578
   0.74171261  0.50915559  0.58069102
   0.00855491  0.73997610  0.58055284
   0.25693066  0.73926319  0.58083574
   0.41626110  0.91735012  0.52645141
   0.91751756  0.16520629  0.52701169
   0.83333333  0.83333333  0.47108954
   0.58333333  0.83333333  0.47108954
   0.25000000  0.00000000  0.41326863
   0.50000000  0.00000000  0.41326863
   0.75000000  0.00000000  0.41326863
   0.00000000  0.25000000  0.41326863
   0.25000000  0.25000000  0.41326863
   0.50000000  0.25000000  0.41326863
   0.75000000  0.25000000  0.41326863
   0.00000000  0.50000000  0.41326863
   0.25000000  0.50000000  0.41326863
   0.50000000  0.50000000  0.41326863
   0.75000000  0.50000000  0.41326863
   0.00000000  0.75000000  0.41326863
   0.25000000  0.75000000  0.41326863
   0.50000000  0.75000000  0.41326863
   0.75000000  0.75000000  0.41326863
   0.08333333  0.08333333  0.47108954
   0.33333333  0.08333333  0.47108954
   0.58333333  0.08333333  0.47108954
   0.83333333  0.08333333  0.47108954
   0.08333333  0.33333333  0.47108954
   0.33333333  0.33333333  0.47108954
   0.58333333  0.33333333  0.47108954
   0.83333333  0.33333333  0.47108954
   0.08333333  0.58333333  0.47108954
   0.33333333  0.58333333  0.47108954
   0.58333333  0.58333333  0.47108954
   0.83333333  0.58333333  0.47108954
   0.08333333  0.83333333  0.47108954
   0.33333333  0.83333333  0.47108954
   0.50380615  0.73926319  0.58083574
   0.75146899  0.73997610  0.58055284
   0.97265410  0.55469179  0.63317940
   0.96104288  0.57791424  0.66458751
Direct configuration=     2
   0.49545153  0.25965040  0.59000607
   0.99499900  0.25902131  0.58947979
   0.24597969  0.25902131  0.58947979
   0.74489808  0.25965040  0.59000607
   0.00662915  0.98705583  0.59091582
   0.25636991  0.98726018  0.59029535
   0.50631501  0.98705583  0.59091582
   0.75672381  0.98655238  0.58918753
   0.66640172  0.66649776  0.52502009
   0.41675614  0.66648772  0.52499588
   0.16710052  0.66649776  0.52502009
   0.91707932  0.66584136  0.52533994
   0.00000000  0.00000000  0.41326863
   0.66814752  0.41406590  0.52565238
   0.41778658  0.41406590  0.52565238
   0.16438077  0.41772905  0.52674646
   0.91789018  0.41772905  0.52674646
   0.66760917  0.16478167  0.52674600
   0.41727183  0.16521178  0.52701328
   0.91724308  0.91632180  0.52611658
   0.16638594  0.91735165  0.52645160
   0.66643512  0.91632180  0.52611658
   0.16693942  0.16612116  0.52690403
   0.99442539  0.51114923  0.58347726
   0.24913700  0.50914036  0.58069267
   0.49565321  0.50869358  0.58078777
   0.74172264  0.50914036  0.58069267
   0.00855034  0.73999882  0.58055408
   0.25693860  0.73926015  0.58083414
   0.41626241  0.91735165  0.52645160
   0.91751639  0.16521178  0.52701328
   0.83333333  0.83333333  0.47108954
   0.58333333  0.83333333  0.47108954
   0.25000000  0.00000000  0.41326863
   0.50000000  0.00000000  0.41326863
   0.75000000  0.00000000  0.41326863
   0.00000000  0.25000000  0.41326863
   0.25000000  0.25000000  0.41326863
   0.50000000  0.25000000  0.41326863
   0.75000000  0.25000000  0.41326863
   0.00000000  0.50000000  0.41326863
   0.25000000  0.50000000  0.41326863
   0.50000000  0.50000000  0.41326863
   0.75000000  0.50000000  0.41326863
   0.00000000  0.75000000  0.41326863
   0.25000000  0.75000000  0.41326863
   0.50000000  0.75000000  0.41326863
   0.75000000  0.75000000  0.41326863
   0.08333333  0.08333333  0.47108954
   0.33333333  0.08333333  0.47108954
   0.58333333  0.08333333  0.47108954
   0.83333333  0.08333333  0.47108954
   0.08333333  0.33333333  0.47108954
   0.33333333  0.33333333  0.47108954
   0.58333333  0.33333333  0.47108954
   0.83333333  0.33333333  0.47108954
   0.08333333  0.58333333  0.47108954
   0.33333333  0.58333333  0.47108954
   0.58333333  0.58333333  0.47108954
   0.83333333  0.58333333  0.47108954
   0.08333333  0.83333333  0.47108954
   0.33333333  0.83333333  0.47108954
   0.50380126  0.73926015  0.58083414
   0.75145084  0.73999882  0.58055408
   0.97264681  0.55470638  0.63312204
   0.96096215  0.57807569  0.66464275
Direct configuration=     3
   0.49549684  0.25964705  0.59000514
   0.99504378  0.25900999  0.58947822
   0.24594623  0.25900999  0.58947822
   0.74485611  0.25964705  0.59000514
   0.00662656  0.98705620  0.59091502
   0.25636409  0.98727182  0.59029647
   0.50631724  0.98705620  0.59091502
   0.75671907  0.98656186  0.58918682
   0.66639484  0.66649687  0.52501904
   0.41676314  0.66647373  0.52499466
   0.16710828  0.66649687  0.52501904
   0.91707714  0.66584572  0.52533869
   0.00000000  0.00000000  0.41326863
   0.66814480  0.41406839  0.52565211
   0.41778681  0.41406839  0.52565211
   0.16437507  0.41773362  0.52674498
   0.91789132  0.41773362  0.52674498
   0.66760997  0.16478005  0.52674150
   0.41727557  0.16520703  0.52701190
   0.91724377  0.91632291  0.52611575
   0.16638839  0.91735033  0.52645143
   0.66643333  0.91632291  0.52611575
   0.16693814  0.16612372  0.52690631
   0.99442700  0.51114601  0.58348399
   0.24913250  0.50915353  0.58069124
   0.49565706  0.50868589  0.58078605
   0.74171397  0.50915353  0.58069124
   0.00855429  0.73997918  0.58055301
   0.25693173  0.73926278  0.58083553
   0.41626128  0.91735033  0.52645143
   0.91751740  0.16520703  0.52701190
   0.83333333  0.83333333  0.47108954
   0.58333333  0.83333333  0.47108954
   0.25000000  0.00000000  0.41326863
   0.50000000  0.00000000  0.41326863
   0.75000000  0.00000000  0.41326863
   0.00000000  0.25000000  0.41326863
   0.25000000  0.25000000  0.41326863
   0.50000000  0.25000000  0.41326863
   0.75000000  0.25000000  0.41326863
   0.00000000  0.50000000  0.41326863
   0.25000000  0.50000000  0.41326863
   0.50000000  0.50000000  0.41326863
   0.75000000  0.50000000  0.41326863
   0.00000000  0.75000000  0.41326863
   0.25000000  0.75000000  0.41326863
   0.50000000  0.75000000  0.41326863
   0.75000000  0.75000000  0.41326863
   0.08333333  0.08333333  0.47108954
   0.33333333  0.08333333  0.47108954
   0.58333333  0.08333333  0.47108954
   0.83333333  0.08333333  0.47108954
   0.08333333  0.33333333  0.47108954
   0.33333333  0.33333333  0.47108954
   0.58333333  0.33333333  0.47108954
   0.83333333  0.33333333  0.47108954
   0.08333333  0.58333333  0.47108954
   0.33333333  0.58333333  0.47108954
   0.58333333  0.58333333  0.47108954
   0.83333333  0.58333333  0.47108954
   0.08333333  0.83333333  0.47108954
   0.33333333  0.83333333  0.47108954
   0.50380549  0.73926278  0.58083553
   0.75146653  0.73997918  0.58055301
   0.97265312  0.55469377  0.63317163
   0.96103194  0.57793611  0.66459500
Direct configuration=     4
   0.49549796  0.25964697  0.59000511
   0.99504488  0.25900971  0.58947818
   0.24594541  0.25900971  0.58947818
   0.74485507  0.25964697  0.59000511
   0.00662650  0.98705621  0.59091500
   0.25636395  0.98727210  0.59029650
   0.50631729  0.98705621  0.59091500
   0.75671895  0.98656209  0.58918680
   0.66639467  0.66649685  0.52501901
   0.41676331  0.66647338  0.52499463
   0.16710847  0.66649685  0.52501901
   0.91707709  0.66584583  0.52533866
   0.00000000  0.00000000  0.41326863
   0.66814473  0.41406845  0.52565211
   0.41778682  0.41406845  0.52565211
   0.16437493  0.41773373  0.52674495
   0.91789134  0.41773373  0.52674495
   0.66760999  0.16478001  0.52674139
   0.41727566  0.16520692  0.52701187
   0.91724378  0.91632293  0.52611573
   0.16638845  0.91735030  0.52645143
   0.66643328  0.91632293  0.52611573
   0.16693811  0.16612379  0.52690637
   0.99442704  0.51114593  0.58348415
   0.24913239  0.50915385  0.58069121
   0.49565715  0.50868570  0.58078601
   0.74171376  0.50915385  0.58069121
   0.00855438  0.73997870  0.58055298
   0.25693156  0.73926284  0.58083556
   0.41626125  0.91735030  0.52645143
   0.91751743  0.16520692  0.52701187
   0.83333333  0.83333333  0.47108954
   0.58333333  0.83333333  0.47108954
   0.25000000  0.00000000  0.41326863
   0.50000000  0.00000000  0.41326863
   0.75000000  0.00000000  0.41326863
   0.00000000  0.25000000  0.41326863
   0.25000000  0.25000000  0.41326863
   0.50000000  0.25000000  0.41326863
   0.75000000  0.25000000  0.41326863
   0.00000000  0.50000000  0.41326863
   0.25000000  0.50000000  0.41326863
   0.50000000  0.50000000  0.41326863
   0.75000000  0.50000000  0.41326863
   0.00000000  0.75000000  0.41326863
   0.25000000  0.75000000  0.41326863
   0.50000000  0.75000000  0.41326863
   0.75000000  0.75000000  0.41326863
   0.08333333  0.08333333  0.47108954
   0.33333333  0.08333333  0.47108954
   0.58333333  0.08333333  0.47108954
   0.83333333  0.08333333  0.47108954
   0.08333333  0.33333333  0.47108954
   0.33333333  0.33333333  0.47108954
   0.58333333  0.33333333  0.47108954
   0.83333333  0.33333333  0.47108954
   0.08333333  0.58333333  0.47108954
   0.33333333  0.58333333  0.47108954
   0.58333333  0.58333333  0.47108954
   0.83333333  0.58333333  0.47108954
   0.08333333  0.83333333  0.47108954
   0.33333333  0.83333333  0.47108954
   0.50380560  0.73926284  0.58083556
   0.75146692  0.73997870  0.58055298
   0.97265327  0.55469346  0.63317285
   0.96103367  0.57793267  0.66459382
Direct configuration=     5
   0.49549733  0.25964702  0.59000513
   0.99504426  0.25900987  0.58947820
   0.24594587  0.25900987  0.58947820
   0.74485565  0.25964702  0.59000513
   0.00662653  0.98705621  0.59091501
   0.25636403  0.98727194  0.59029648
   0.50631726  0.98705621  0.59091501
   0.75671902  0.98656196  0.58918681
   0.66639477  0.66649686  0.52501903
   0.41676321  0.66647358  0.52499465
   0.16710837  0.66649686  0.52501903
   0.91707712  0.66584577  0.52533868
   0.00000000  0.00000000  0.41326863
   0.66814477  0.41406842  0.52565211
   0.41778681  0.41406842  0.52565211
   0.16437501  0.41773366  0.52674497
   0.91789133  0.41773366  0.52674497
   0.66760998  0.16478003  0.52674145
   0.41727561  0.16520698  0.52701189
   0.91724377  0.91632292  0.52611574
   0.16638841  0.91735032  0.52645143
   0.66643331  0.91632292  0.52611574
   0.16693812  0.16612375  0.52690634
   0.99442701  0.51114597  0.58348406
   0.24913246  0.50915367  0.58069123
   0.49565710  0.50868581  0.58078603
   0.74171388  0.50915367  0.58069123
   0.00855433  0.73997897  0.58055300
   0.25693166  0.73926280  0.58083554
   0.41626127  0.91735032  0.52645143
   0.91751741  0.16520698  0.52701189
   0.83333333  0.83333333  0.47108954
   0.58333333  0.83333333  0.47108954
   0.25000000  0.00000000  0.41326863
   0.50000000  0.00000000  0.41326863
   0.75000000  0.00000000  0.41326863
   0.00000000  0.25000000  0.41326863
   0.25000000  0.25000000  0.41326863
   0.50000000  0.25000000  0.41326863
   0.75000000  0.25000000  0.41326863
   0.00000000  0.50000000  0.41326863
   0.25000000  0.50000000  0.41326863
   0.50000000  0.50000000  0.41326863
   0.75000000  0.50000000  0.41326863
   0.00000000  0.75000000  0.41326863
   0.25000000  0.75000000  0.41326863
   0.50000000  0.75000000  0.41326863
   0.75000000  0.75000000  0.41326863
   0.08333333  0.08333333  0.47108954
   0.33333333  0.08333333  0.47108954
   0.58333333  0.08333333  0.47108954
   0.83333333  0.08333333  0.47108954
   0.08333333  0.33333333  0.47108954
   0.33333333  0.33333333  0.47108954
   0.58333333  0.33333333  0.47108954
   0.83333333  0.33333333  0.47108954
   0.08333333  0.58333333  0.47108954
   0.33333333  0.58333333  0.47108954
   0.58333333  0.58333333  0.47108954
   0.83333333  0.58333333  0.47108954
   0.08333333  0.83333333  0.47108954
   0.33333333  0.83333333  0.47108954
   0.50380554  0.73926280  0.58083554
   0.75146670  0.73997897  0.58055300
   0.97265318  0.55469363  0.63317216
   0.96103269  0.57793461  0.66459448
Direct configuration=     6
   0.49545377  0.25965039  0.59000607
   0.99500113  0.25902183  0.58947991
   0.24597703  0.25902183  0.58947991
   0.74489584  0.25965039  0.59000607
   0.00662985  0.98705577  0.59091579
   0.25636980  0.98726040  0.59029503
   0.50631438  0.98705577  0.59091579
   0.75672331  0.98655339  0.58918754
   0.66640349  0.66649762  0.52502065
   0.41675500  0.66649000  0.52499605
   0.16709888  0.66649762  0.52502065
   0.91707938  0.66584125  0.52533990
   0.00000000  0.00000000  0.41326863
   0.66814747  0.41406586  0.52565289
   0.41778667  0.41406586  0.52565289
   0.16438338  0.41772682  0.52674660
   0.91788981  0.41772682  0.52674660
   0.66760892  0.16478216  0.52674749
   0.41727123  0.16521240  0.52701385
   0.91724214  0.91632186  0.52611712
   0.16638368  0.91735288  0.52645205
   0.66643600  0.91632186  0.52611712
   0.16693963  0.16612073  0.52690412
   0.99442681  0.51114639  0.58347333
   0.24913554  0.50914084  0.58069300
   0.49565337  0.50869327  0.58078798
   0.74172362  0.50914084  0.58069300
   0.00855047  0.74000193  0.58055474
   0.25693990  0.73925851  0.58083399
   0.41626344  0.91735288  0.52645205
   0.91751637  0.16521240  0.52701385
   0.83333333  0.83333333  0.47108954
   0.58333333  0.83333333  0.47108954
   0.25000000  0.00000000  0.41326863
   0.50000000  0.00000000  0.41326863
   0.75000000  0.00000000  0.41326863
   0.00000000  0.25000000  0.41326863
   0.25000000  0.25000000  0.41326863
   0.50000000  0.25000000  0.41326863
   0.75000000  0.25000000  0.41326863
   0.00000000  0.50000000  0.41326863
   0.25000000  0.50000000  0.41326863
   0.50000000  0.50000000  0.41326863
   0.75000000  0.50000000  0.41326863
   0.00000000  0.75000000  0.41326863
   0.25000000  0.75000000  0.41326863
   0.50000000  0.75000000  0.41326863
   0.75000000  0.75000000  0.41326863
   0.08333333  0.08333333  0.47108954
   0.33333333  0.08333333  0.47108954
   0.58333333  0.08333333  0.47108954
   0.83333333  0.08333333  0.47108954
   0.08333333  0.33333333  0.47108954
   0.33333333  0.33333333  0.47108954
   0.58333333  0.33333333  0.47108954
   0.83333333  0.33333333  0.47108954
   0.08333333  0.58333333  0.47108954
   0.33333333  0.58333333  0.47108954
   0.58333333  0.58333333  0.47108954
   0.83333333  0.58333333  0.47108954
   0.08333333  0.83333333  0.47108954
   0.33333333  0.83333333  0.47108954
   0.50380159  0.73925851  0.58083399
   0.75144760  0.74000193  0.58055474
   0.97262311  0.55475379  0.63317285
   0.96097361  0.57805279  0.66459047
Direct configuration=     7
   0.49544459  0.25965110  0.59000626
   0.99499203  0.25902436  0.58948028
   0.24598361  0.25902436  0.58948028
   0.74490432  0.25965110  0.59000626
   0.00663055  0.98705568  0.59091595
   0.25637102  0.98725797  0.59029472
   0.50631377  0.98705568  0.59091595
   0.75672421  0.98655158  0.58918769
   0.66640533  0.66649778  0.52502100
   0.41675327  0.66649347  0.52499634
   0.16709688  0.66649778  0.52502100
   0.91707985  0.66584029  0.52534016
   0.00000000  0.00000000  0.41326863
   0.66814803  0.41406532  0.52565305
   0.41778664  0.41406532  0.52565305
   0.16438514  0.41772537  0.52674694
   0.91788948  0.41772537  0.52674694
   0.66760870  0.16478261  0.52674876
   0.41727031  0.16521354  0.52701426
   0.91724179  0.91632164  0.52611742
   0.16638268  0.91735342  0.52645218
   0.66643657  0.91632164  0.52611742
   0.16693995  0.16612009  0.52690366
   0.99442676  0.51114648  0.58347107
   0.24913619  0.50913813  0.58069338
   0.49565258  0.50869484  0.58078839
   0.74172568  0.50913813  0.58069338
   0.00854965  0.74000678  0.58055511
   0.25694164  0.73925760  0.58083366
   0.41626389  0.91735342  0.52645218
   0.91751615  0.16521354  0.52701426
   0.83333333  0.83333333  0.47108954
   0.58333333  0.83333333  0.47108954
   0.25000000  0.00000000  0.41326863
   0.50000000  0.00000000  0.41326863
   0.75000000  0.00000000  0.41326863
   0.00000000  0.25000000  0.41326863
   0.25000000  0.25000000  0.41326863
   0.50000000  0.25000000  0.41326863
   0.75000000  0.25000000  0.41326863
   0.00000000  0.50000000  0.41326863
   0.25000000  0.50000000  0.41326863
   0.50000000  0.50000000  0.41326863
   0.75000000  0.50000000  0.41326863
   0.00000000  0.75000000  0.41326863
   0.25000000  0.75000000  0.41326863
   0.50000000  0.75000000  0.41326863
   0.75000000  0.75000000  0.41326863
   0.08333333  0.08333333  0.47108954
   0.33333333  0.08333333  0.47108954
   0.58333333  0.08333333  0.47108954
   0.83333333  0.08333333  0.47108954
   0.08333333  0.33333333  0.47108954
   0.33333333  0.33333333  0.47108954
   0.58333333  0.33333333  0.47108954
   0.83333333  0.33333333  0.47108954
   0.08333333  0.58333333  0.47108954
   0.33333333  0.58333333  0.47108954
   0.58333333  0.58333333  0.47108954
   0.83333333  0.58333333  0.47108954
   0.08333333  0.83333333  0.47108954
   0.33333333  0.83333333  0.47108954
   0.50380076  0.73925760  0.58083366
   0.75144357  0.74000678  0.58055511
   0.97261676  0.55476648  0.63317300
   0.96096114  0.57807772  0.66458962
Direct configuration=     8
   0.49543331  0.25965316  0.59000727
   0.99498052  0.25903016  0.58948171
   0.24598932  0.25903016  0.58948171
   0.74491353  0.25965316  0.59000727
   0.00663216  0.98705579  0.59091658
   0.25637228  0.98725543  0.59029401
   0.50631205  0.98705579  0.59091658
   0.75672456  0.98655088  0.58918849
   0.66640896  0.66649575  0.52502124
   0.41675324  0.66649352  0.52499611
   0.16709528  0.66649575  0.52502124
   0.91708020  0.66583960  0.52534073
   0.00000000  0.00000000  0.41326863
   0.66814774  0.41406582  0.52565337
   0.41778644  0.41406582  0.52565337
   0.16438520  0.41772711  0.52674711
   0.91788769  0.41772711  0.52674711
   0.66760629  0.16478743  0.52674986
   0.41727117  0.16521387  0.52701432
   0.91724092  0.91632237  0.52611791
   0.16638097  0.91735503  0.52645235
   0.66643671  0.91632237  0.52611791
   0.16693878  0.16612244  0.52690541
   0.99442799  0.51114401  0.58346990
   0.24913704  0.50913966  0.58069300
   0.49565435  0.50869129  0.58078815
   0.74172330  0.50913966  0.58069300
   0.00855666  0.73999723  0.58055521
   0.25694156  0.73925533  0.58083346
   0.41626399  0.91735503  0.52645235
   0.91751497  0.16521387  0.52701432
   0.83333333  0.83333333  0.47108954
   0.58333333  0.83333333  0.47108954
   0.25000000  0.00000000  0.41326863
   0.50000000  0.00000000  0.41326863
   0.75000000  0.00000000  0.41326863
   0.00000000  0.25000000  0.41326863
   0.25000000  0.25000000  0.41326863
   0.50000000  0.25000000  0.41326863
   0.75000000  0.25000000  0.41326863
   0.00000000  0.50000000  0.41326863
   0.25000000  0.50000000  0.41326863
   0.50000000  0.50000000  0.41326863
   0.75000000  0.50000000  0.41326863
   0.00000000  0.75000000  0.41326863
   0.25000000  0.75000000  0.41326863
   0.50000000  0.75000000  0.41326863
   0.75000000  0.75000000  0.41326863
   0.08333333  0.08333333  0.47108954
   0.33333333  0.08333333  0.47108954
   0.58333333  0.08333333  0.47108954
   0.83333333  0.08333333  0.47108954
   0.08333333  0.33333333  0.47108954
   0.33333333  0.33333333  0.47108954
   0.58333333  0.33333333  0.47108954
   0.83333333  0.33333333  0.47108954
   0.08333333  0.58333333  0.47108954
   0.33333333  0.58333333  0.47108954
   0.58333333  0.58333333  0.47108954
   0.83333333  0.58333333  0.47108954
   0.08333333  0.83333333  0.47108954
   0.33333333  0.83333333  0.47108954
   0.50380311  0.73925533  0.58083346
   0.75144611  0.73999723  0.58055521
   0.97259561  0.55480878  0.63317197
   0.96092007  0.57815985  0.66458705
Direct configuration=     9
   0.49539950  0.25965934  0.59001028
   0.99494599  0.25904755  0.58948601
   0.24600646  0.25904755  0.58948601
   0.74494116  0.25965934  0.59001028
   0.00663697  0.98705613  0.59091847
   0.25637608  0.98724783  0.59029190
   0.50630689  0.98705613  0.59091847
   0.75672561  0.98654878  0.58919087
   0.66641986  0.66648966  0.52502197
   0.41675315  0.66649369  0.52499540
   0.16709048  0.66648966  0.52502197
   0.91708123  0.66583753  0.52534244
   0.00000000  0.00000000  0.41326863
   0.66814685  0.41406731  0.52565431
   0.41778584  0.41406731  0.52565431
   0.16438536  0.41773235  0.52674764
   0.91788230  0.41773235  0.52674764
   0.66759906  0.16480188  0.52675314
   0.41727373  0.16521484  0.52701450
   0.91723831  0.91632458  0.52611940
   0.16637585  0.91735986  0.52645285
   0.66643711  0.91632458  0.52611940
   0.16693526  0.16612949  0.52691066
   0.99443170  0.51113661  0.58346640
   0.24913961  0.50914424  0.58069186
   0.49565968  0.50868064  0.58078745
   0.74171615  0.50914424  0.58069186
   0.00857766  0.73996859  0.58055552
   0.25694129  0.73924853  0.58083283
   0.41626429  0.91735986  0.52645285
   0.91751142  0.16521484  0.52701450
   0.83333333  0.83333333  0.47108954
   0.58333333  0.83333333  0.47108954
   0.25000000  0.00000000  0.41326863
   0.50000000  0.00000000  0.41326863
   0.75000000  0.00000000  0.41326863
   0.00000000  0.25000000  0.41326863
   0.25000000  0.25000000  0.41326863
   0.50000000  0.25000000  0.41326863
   0.75000000  0.25000000  0.41326863
   0.00000000  0.50000000  0.41326863
   0.25000000  0.50000000  0.41326863
   0.50000000  0.50000000  0.41326863
   0.75000000  0.50000000  0.41326863
   0.00000000  0.75000000  0.41326863
   0.25000000  0.75000000  0.41326863
   0.50000000  0.75000000  0.41326863
   0.75000000  0.75000000  0.41326863
   0.08333333  0.08333333  0.47108954
   0.33333333  0.08333333  0.47108954
   0.58333333  0.08333333  0.47108954
   0.83333333  0.08333333  0.47108954
   0.08333333  0.33333333  0.47108954
   0.33333333  0.33333333  0.47108954
   0.58333333  0.33333333  0.47108954
   0.83333333  0.33333333  0.47108954
   0.08333333  0.58333333  0.47108954
   0.33333333  0.58333333  0.47108954
   0.58333333  0.58333333  0.47108954
   0.83333333  0.58333333  0.47108954
   0.08333333  0.83333333  0.47108954
   0.33333333  0.83333333  0.47108954
   0.50381017  0.73924853  0.58083283
   0.75145375  0.73996859  0.58055552
   0.97253216  0.55493568  0.63316889
   0.96079688  0.57840624  0.66457933
Direct configuration=    10
   0.49533187  0.25967170  0.59001631
   0.99487692  0.25908235  0.58949462
   0.24604073  0.25908235  0.58949462
   0.74499643  0.25967170  0.59001631
   0.00664660  0.98705682  0.59092224
   0.25638369  0.98723263  0.59028767
   0.50629658  0.98705682  0.59092224
   0.75672770  0.98654460  0.58919564
   0.66644165  0.66647747  0.52502344
   0.41675298  0.66649403  0.52499400
   0.16708088  0.66647747  0.52502344
   0.91708330  0.66583339  0.52534587
   0.00000000  0.00000000  0.41326863
   0.66814508  0.41407028  0.52565620
   0.41778463  0.41407028  0.52565620
   0.16438568  0.41774281  0.52674870
   0.91787151  0.41774281  0.52674870
   0.66758461  0.16483079  0.52675971
   0.41727887  0.16521680  0.52701486
   0.91723309  0.91632898  0.52612237
   0.16636560  0.91736952  0.52645385
   0.66643792  0.91632898  0.52612237
   0.16692821  0.16614358  0.52692117
   0.99443910  0.51112181  0.58345941
   0.24914475  0.50915339  0.58068959
   0.49567033  0.50865934  0.58078605
   0.74170186  0.50915339  0.58068959
   0.00861968  0.73991130  0.58055614
   0.25694077  0.73923494  0.58083158
   0.41626489  0.91736952  0.52645385
   0.91750433  0.16521680  0.52701486
   0.83333333  0.83333333  0.47108954
   0.58333333  0.83333333  0.47108954
   0.25000000  0.00000000  0.41326863
   0.50000000  0.00000000  0.41326863
   0.75000000  0.00000000  0.41326863
   0.00000000  0.25000000  0.41326863
   0.25000000  0.25000000  0.41326863
   0.50000000  0.25000000  0.41326863
   0.75000000  0.25000000  0.41326863
   0.00000000  0.50000000  0.41326863
   0.25000000  0.50000000  0.41326863
   0.50000000  0.50000000  0.41326863
   0.75000000  0.50000000  0.41326863
   0.00000000  0.75000000  0.41326863
   0.25000000  0.75000000  0.41326863
   0.50000000  0.75000000  0.41326863
   0.75000000  0.75000000  0.41326863
   0.08333333  0.08333333  0.47108954
   0.33333333  0.08333333  0.47108954
   0.58333333  0.08333333  0.47108954
   0.83333333  0.08333333  0.47108954
   0.08333333  0.33333333  0.47108954
   0.33333333  0.33333333  0.47108954
   0.58333333  0.33333333  0.47108954
   0.83333333  0.33333333  0.47108954
   0.08333333  0.58333333  0.47108954
   0.33333333  0.58333333  0.47108954
   0.58333333  0.58333333  0.47108954
   0.83333333  0.58333333  0.47108954
   0.08333333  0.83333333  0.47108954
   0.33333333  0.83333333  0.47108954
   0.50382430  0.73923494  0.58083158
   0.75146902  0.73991130  0.58055614
   0.97240526  0.55518948  0.63316274
   0.96055049  0.57889902  0.66456389
Direct configuration=    11
   0.49533632  0.25967234  0.59001735
   0.99488030  0.25908577  0.58949599
   0.24603393  0.25908577  0.58949599
   0.74499134  0.25967234  0.59001735
   0.00664784  0.98705533  0.59092273
   0.25638333  0.98723334  0.59028697
   0.50629683  0.98705533  0.59092273
   0.75672767  0.98654466  0.58919632
   0.66644463  0.66647506  0.52502333
   0.41675371  0.66649258  0.52499372
   0.16708031  0.66647506  0.52502333
   0.91708346  0.66583307  0.52534604
   0.00000000  0.00000000  0.41326863
   0.66814475  0.41407058  0.52565640
   0.41778467  0.41407058  0.52565640
   0.16438688  0.41774232  0.52674864
   0.91787080  0.41774232  0.52674864
   0.66758212  0.16483576  0.52676069
   0.41727894  0.16521732  0.52701502
   0.91723374  0.91632866  0.52612279
   0.16636530  0.91737076  0.52645394
   0.66643761  0.91632866  0.52612279
   0.16692721  0.16614558  0.52692265
   0.99443941  0.51112117  0.58346073
   0.24914513  0.50915475  0.58068955
   0.49567179  0.50865643  0.58078607
   0.74170012  0.50915475  0.58068955
   0.00862287  0.73990876  0.58055611
   0.25694032  0.73923474  0.58083139
   0.41626394  0.91737076  0.52645394
   0.91750374  0.16521732  0.52701502
   0.83333333  0.83333333  0.47108954
   0.58333333  0.83333333  0.47108954
   0.25000000  0.00000000  0.41326863
   0.50000000  0.00000000  0.41326863
   0.75000000  0.00000000  0.41326863
   0.00000000  0.25000000  0.41326863
   0.25000000  0.25000000  0.41326863
   0.50000000  0.25000000  0.41326863
   0.75000000  0.25000000  0.41326863
   0.00000000  0.50000000  0.41326863
   0.25000000  0.50000000  0.41326863
   0.50000000  0.50000000  0.41326863
   0.75000000  0.50000000  0.41326863
   0.00000000  0.75000000  0.41326863
   0.25000000  0.75000000  0.41326863
   0.50000000  0.75000000  0.41326863
   0.75000000  0.75000000  0.41326863
   0.08333333  0.08333333  0.47108954
   0.33333333  0.08333333  0.47108954
   0.58333333  0.08333333  0.47108954
   0.83333333  0.08333333  0.47108954
   0.08333333  0.33333333  0.47108954
   0.33333333  0.33333333  0.47108954
   0.58333333  0.33333333  0.47108954
   0.83333333  0.33333333  0.47108954
   0.08333333  0.58333333  0.47108954
   0.33333333  0.58333333  0.47108954
   0.58333333  0.58333333  0.47108954
   0.83333333  0.58333333  0.47108954
   0.08333333  0.83333333  0.47108954
   0.33333333  0.83333333  0.47108954
   0.50382494  0.73923474  0.58083139
   0.75146837  0.73990876  0.58055611
   0.97238283  0.55523434  0.63316078
   0.96050874  0.57898252  0.66456046
Direct configuration=    12
   0.49534970  0.25967424  0.59002046
   0.99489045  0.25909602  0.58950011
   0.24601354  0.25909602  0.58950011
   0.74497606  0.25967424  0.59002046
   0.00665154  0.98705088  0.59092418
   0.25638227  0.98723547  0.59028489
   0.50629757  0.98705088  0.59092418
   0.75672758  0.98654484  0.58919836
   0.66645358  0.66646784  0.52502302
   0.41675589  0.66648822  0.52499291
   0.16707858  0.66646784  0.52502302
   0.91708394  0.66583212  0.52534654
   0.00000000  0.00000000  0.41326863
   0.66814375  0.41407146  0.52565700
   0.41778479  0.41407146  0.52565700
   0.16439047  0.41774087  0.52674846
   0.91786866  0.41774087  0.52674846
   0.66757467  0.16485066  0.52676362
   0.41727913  0.16521889  0.52701548
   0.91723567  0.91632768  0.52612404
   0.16636441  0.91737451  0.52645421
   0.66643665  0.91632768  0.52612404
   0.16692421  0.16615158  0.52692711
   0.99444036  0.51111928  0.58346472
   0.24914626  0.50915881  0.58068944
   0.49567615  0.50864770  0.58078612
   0.74169492  0.50915881  0.58068944
   0.00863245  0.73990114  0.58055601
   0.25693900  0.73923414  0.58083080
   0.41626108  0.91737451  0.52645421
   0.91750197  0.16521889  0.52701548
   0.83333333  0.83333333  0.47108954
   0.58333333  0.83333333  0.47108954
   0.25000000  0.00000000  0.41326863
   0.50000000  0.00000000  0.41326863
   0.75000000  0.00000000  0.41326863
   0.00000000  0.25000000  0.41326863
   0.25000000  0.25000000  0.41326863
   0.50000000  0.25000000  0.41326863
   0.75000000  0.25000000  0.41326863
   0.00000000  0.50000000  0.41326863
   0.25000000  0.50000000  0.41326863
   0.50000000  0.50000000  0.41326863
   0.75000000  0.50000000  0.41326863
   0.00000000  0.75000000  0.41326863
   0.25000000  0.75000000  0.41326863
   0.50000000  0.75000000  0.41326863
   0.75000000  0.75000000  0.41326863