  64  64   1   0
  0.5191685E+02  0.1028133E-08  0.1028133E-08  0.3629601E-08  0.5000000E-15
   1.0000000000000000E-004
  CAR 
 Cu-Au(111) 4x4 slab relaxation          
      9.56296086    -75.74760852  301     -1.90958468      1.00000000
    -75.748  0.0000E+00  0.0000E+00
    -75.463  0.0000E+00  0.0000E+00
    -75.179  0.0000E+00  0.0000E+00
    -74.895  0.0000E+00  0.0000E+00
    -74.610  0.0000E+00  0.0000E+00
    -74.326  0.0000E+00  0.0000E+00
    -74.041  0.0000E+00  0.0000E+00
    -73.757  0.0000E+00  0.0000E+00
    -73.473  0.0000E+00  0.0000E+00
    -73.188  0.0000E+00  0.0000E+00
    -72.904 -0.6790E-47 -0.1931E-47
    -72.620 -0.6305E-25 -0.1793E-25
    -72.335 -0.4795E-10 -0.1364E-10
    -72.051 -0.2676E-02 -0.7610E-03
    -71.766  0.1000E+01  0.2837E+00
    -71.482  0.3866E+01  0.1383E+01
    -71.198  0.1048E+01  0.1681E+01
    -70.913 -0.3986E-02  0.1680E+01
    -70.629 -0.2878E-10  0.1680E+01
    -70.345  0.0000E+00  0.1680E+01
    -70.060  0.0000E+00  0.1680E+01
    -69.776  0.0000E+00  0.1680E+01
    -69.492  0.0000E+00  0.1680E+01
    -69.207  0.0000E+00  0.1680E+01
    -68.923  0.0000E+00  0.1680E+01
    -68.638  0.0000E+00  0.1680E+01
    -68.354  0.0000E+00  0.1680E+01
    -68.070  0.0000E+00  0.1680E+01
    -67.785  0.0000E+00  0.1680E+01
    -67.501  0.0000E+00  0.1680E+01
    -67.217  0.0000E+00  0.1680E+01
    -66.932  0.0000E+00  0.1680E+01
    -66.648  0.0000E+00  0.1680E+01
    -66.363  0.0000E+00  0.1680E+01
    -66.079  0.0000E+00  0.1680E+01
    -65.795  0.0000E+00  0.1680E+01
    -65.510  0.0000E+00  0.1680E+01
    -65.226  0.0000E+00  0.1680E+01
    -64.942  0.0000E+00  0.1680E+01
    -64.657  0.0000E+00  0.1680E+01
    -64.373  0.0000E+00  0.1680E+01
    -64.088  0.0000E+00  0.1680E+01
    -63.804  0.0000E+00  0.1680E+01
    -63.520  0.0000E+00  0.1680E+01
    -63.235  0.0000E+00  0.1680E+01
    -62.951  0.0000E+00  0.1680E+01
    -62.667  0.0000E+00  0.1680E+01
    -62.382  0.0000E+00  0.1680E+01
    -62.098  0.0000E+00  0.1680E+01
    -61.814  0.0000E+00  0.1680E+01
    -61.529  0.0000E+00  0.1680E+01
    -61.245  0.0000E+00  0.1680E+01
    -60.960  0.0000E+00  0.1680E+01
    -60.676  0.0000E+00  0.1680E+01
    -60.392  0.0000E+00  0.1680E+01
    -60.107  0.0000E+00  0.1680E+01
    -59.823  0.0000E+00  0.1680E+01
    -59.539  0.0000E+00  0.1680E+01
    -59.254  0.0000E+00  0.1680E+01
    -58.970  0.0000E+00  0.1680E+01
    -58.685  0.0000E+00  0.1680E+01
    -58.401  0.0000E+00  0.1680E+01
    -58.117  0.0000E+00  0.1680E+01
    -57.832  0.0000E+00  0.1680E+01
    -57.548  0.0000E+00  0.1680E+01
    -57.264  0.0000E+00  0.1680E+01
    -56.979  0.0000E+00  0.1680E+01
    -56.695  0.0000E+00  0.1680E+01
    -56.411  0.0000E+00  0.1680E+01
    -56.126  0.0000E+00  0.1680E+01
    -55.842  0.0000E+00  0.1680E+01
    -55.557  0.0000E+00  0.1680E+01
    -55.273  0.0000E+00  0.1680E+01
    -54.989  0.0000E+00  0.1680E+01
    -54.704  0.0000E+00  0.1680E+01
    -54.420  0.0000E+00  0.1680E+01
    -54.136  0.0000E+00  0.1680E+01
    -53.851  0.0000E+00  0.1680E+01
    -53.567  0.0000E+00  0.1680E+01
    -53.282  0.0000E+00  0.1680E+01
    -52.998  0.0000E+00  0.1680E+01
    -52.714  0.0000E+00  0.1680E+01
    -52.429  0.0000E+00  0.1680E+01
    -52.145  0.0000E+00  0.1680E+01
    -51.861  0.0000E+00  0.1680E+01
    -51.576  0.0000E+00  0.1680E+01
    -51.292  0.0000E+00  0.1680E+01
    -51.008  0.0000E+00  0.1680E+01
    -50.723  0.0000E+00  0.1680E+01
    -50.439  0.0000E+00  0.1680E+01
    -50.154  0.0000E+00  0.1680E+01
    -49.870  0.0000E+00  0.1680E+01
    -49.586  0.0000E+00  0.1680E+01
    -49.301  0.0000E+00  0.1680E+01
    -49.017  0.0000E+00  0.1680E+01
    -48.733  0.0000E+00  0.1680E+01
    -48.448  0.0000E+00  0.1680E+01
    -48.164  0.0000E+00  0.1680E+01
    -47.879  0.0000E+00  0.1680E+01
    -47.595  0.0000E+00  0.1680E+01
    -47.311  0.0000E+00  0.1680E+01
    -47.026  0.0000E+00  0.1680E+01
    -46.742  0.0000E+00  0.1680E+01
    -46.458  0.0000E+00  0.1680E+01
    -46.173  0.0000E+00  0.1680E+01
    -45.889  0.0000E+00  0.1680E+01
    -45.605  0.0000E+00  0.1680E+01
    -45.320  0.0000E+00  0.1680E+01
    -45.036  0.0000E+00  0.1680E+01
    -44.751  0.0000E+00  0.1680E+01
    -44.467  0.0000E+00  0.1680E+01
    -44.183  0.0000E+00  0.1680E+01
    -43.898  0.0000E+00  0.1680E+01
    -43.614  0.0000E+00  0.1680E+01
    -43.330  0.0000E+00  0.1680E+01
    -43.045  0.0000E+00  0.1680E+01
    -42.761  0.0000E+00  0.1680E+01
    -42.476  0.0000E+00  0.1680E+01
    -42.192  0.0000E+00  0.1680E+01
    -41.908  0.0000E+00  0.1680E+01
    -41.623  0.0000E+00  0.1680E+01
    -41.339  0.0000E+00  0.1680E+01
    -41.055  0.0000E+00  0.1680E+01
    -40.770  0.0000E+00  0.1680E+01
    -40.486  0.0000E+00  0.1680E+01
    -40.202  0.0000E+00  0.1680E+01
    -39.917  0.0000E+00  0.1680E+01
    -39.633  0.0000E+00  0.1680E+01
    -39.348  0.0000E+00  0.1680E+01
    -39.064  0.0000E+00  0.1680E+01
    -38.780  0.0000E+00  0.1680E+01
    -38.495  0.0000E+00  0.1680E+01
    -38.211  0.0000E+00  0.1680E+01
    -37.927  0.0000E+00  0.1680E+01
    -37.642  0.0000E+00  0.1680E+01
    -37.358  0.0000E+00  0.1680E+01
    -37.073  0.0000E+00  0.1680E+01
    -36.789  0.0000E+00  0.1680E+01
    -36.505  0.0000E+00  0.1680E+01
    -36.220  0.0000E+00  0.1680E+01
    -35.936  0.0000E+00  0.1680E+01
    -35.652  0.0000E+00  0.1680E+01
    -35.367  0.0000E+00  0.1680E+01
    -35.083  0.0000E+00  0.1680E+01
    -34.799  0.0000E+00  0.1680E+01
    -34.514  0.0000E+00  0.1680E+01
    -34.230  0.0000E+00  0.1680E+01
    -33.945  0.0000E+00  0.1680E+01
    -33.661  0.0000E+00  0.1680E+01
    -33.377  0.0000E+00  0.1680E+01
    -33.092  0.0000E+00  0.1680E+01
    -32.808  0.0000E+00  0.1680E+01
    -32.524  0.0000E+00  0.1680E+01
    -32.239  0.0000E+00  0.1680E+01
    -31.955  0.0000E+00  0.1680E+01
    -31.670  0.0000E+00  0.1680E+01
    -31.386  0.0000E+00  0.1680E+01
    -31.102  0.0000E+00  0.1680E+01
    -30.817  0.0000E+00  0.1680E+01
    -30.533  0.0000E+00  0.1680E+01
    -30.249  0.0000E+00  0.1680E+01
    -29.964  0.0000E+00  0.1680E+01
    -29.680  0.0000E+00  0.1680E+01
    -29.396  0.0000E+00  0.1680E+01
    -29.111  0.0000E+00  0.1680E+01
    -28.827  0.0000E+00  0.1680E+01
    -28.542  0.0000E+00  0.1680E+01
    -28.258  0.0000E+00  0.1680E+01
    -27.974  0.0000E+00  0.1680E+01
    -27.689  0.0000E+00  0.1680E+01
    -27.405  0.0000E+00  0.1680E+01
    -27.121  0.0000E+00  0.1680E+01
    -26.836  0.0000E+00  0.1680E+01
    -26.552  0.0000E+00  0.1680E+01
    -26.267  0.0000E+00  0.1680E+01
    -25.983  0.0000E+00  0.1680E+01
    -25.699  0.0000E+00  0.1680E+01
    -25.414  0.0000E+00  0.1680E+01
    -25.130  0.0000E+00  0.1680E+01
    -24.846  0.0000E+00  0.1680E+01
    -24.561  0.0000E+00  0.1680E+01
    -24.277  0.0000E+00  0.1680E+01
    -23.993  0.0000E+00  0.1680E+01
    -23.708  0.0000E+00  0.1680E+01
    -23.424  0.0000E+00  0.1680E+01
    -23.139  0.0000E+00  0.1680E+01
    -22.855  0.0000E+00  0.1680E+01
    -22.571  0.0000E+00  0.1680E+01
    -22.286  0.0000E+00  0.1680E+01
    -22.002  0.0000E+00  0.1680E+01
    -21.718  0.0000E+00  0.1680E+01
    -21.433  0.0000E+00  0.1680E+01
    -21.149  0.0000E+00  0.1680E+01
    -20.864  0.0000E+00  0.1680E+01
    -20.580  0.0000E+00  0.1680E+01
    -20.296  0.0000E+00  0.1680E+01
    -20.011  0.0000E+00  0.1680E+01
    -19.727  0.0000E+00  0.1680E+01
    -19.443  0.0000E+00  0.1680E+01
    -19.158  0.0000E+00  0.1680E+01
    -18.874  0.0000E+00  0.1680E+01
    -18.590  0.0000E+00  0.1680E+01
    -18.305  0.0000E+00  0.1680E+01
    -18.021  0.0000E+00  0.1680E+01
    -17.736  0.0000E+00  0.1680E+01
    -17.452  0.0000E+00  0.1680E+01
    -17.168  0.0000E+00  0.1680E+01
    -16.883  0.0000E+00  0.1680E+01
    -16.599  0.0000E+00  0.1680E+01
    -16.315  0.0000E+00  0.1680E+01
    -16.030  0.0000E+00  0.1680E+01
    -15.746  0.0000E+00  0.1680E+01
    -15.461  0.0000E+00  0.1680E+01
    -15.177  0.0000E+00  0.1680E+01
    -14.893  0.0000E+00  0.1680E+01
    -14.608  0.0000E+00  0.1680E+01
    -14.324  0.0000E+00  0.1680E+01
    -14.040  0.0000E+00  0.1680E+01
    -13.755  0.0000E+00  0.1680E+01
    -13.471  0.0000E+00  0.1680E+01
    -13.187  0.0000E+00  0.1680E+01
    -12.902  0.0000E+00  0.1680E+01
    -12.618  0.0000E+00  0.1680E+01
    -12.333  0.0000E+00  0.1680E+01
    -12.049  0.0000E+00  0.1680E+01
    -11.765 -0.6976E-44  0.1680E+01
    -11.480 -0.3384E-23  0.1680E+01
    -11.196 -0.1226E-09  0.1680E+01
    -10.912 -0.1334E-03  0.1680E+01
    -10.627  0.5647E-02  0.1682E+01
    -10.343  0.2161E-01  0.1688E+01
    -10.058  0.1748E-01  0.1693E+01
     -9.774  0.3026E-01  0.1701E+01
     -9.490  0.2294E-03  0.1701E+01
     -9.205  0.6343E-01  0.1719E+01
     -8.921  0.2867E-01  0.1728E+01
     -8.637  0.4497E-01  0.1740E+01
     -8.352  0.7549E-01  0.1762E+01
     -8.068  0.1620E+00  0.1808E+01
     -7.784  0.1281E+00  0.1844E+01
     -7.499  0.2081E+00  0.1903E+01
     -7.215  0.1995E+00  0.1960E+01
     -6.930  0.1852E+00  0.2013E+01
     -6.646  0.2623E+00  0.2087E+01
     -6.362  0.3650E+00  0.2191E+01
     -6.077  0.5097E+00  0.2336E+01
     -5.793  0.7050E+00  0.2537E+01
     -5.509  0.6019E+00  0.2708E+01
     -5.224  0.6384E+00  0.2889E+01
     -4.940  0.8134E+00  0.3121E+01
     -4.655  0.9927E+00  0.3403E+01
     -4.371  0.1193E+01  0.3742E+01
     -4.087  0.9070E+00  0.4000E+01
     -3.802  0.1124E+01  0.4320E+01
     -3.518  0.1151E+01  0.4647E+01
     -3.234  0.1326E+01  0.5024E+01
     -2.949  0.1896E+00  0.5078E+01
     -2.665  0.1020E+00  0.5107E+01
     -2.381  0.1383E+00  0.5147E+01
     -2.096  0.5186E-01  0.5161E+01
     -1.812  0.1698E+00  0.5210E+01
     -1.527 -0.9645E-03  0.5209E+01
     -1.243  0.1969E+00  0.5265E+01
     -0.959  0.1201E+00  0.5299E+01
     -0.674  0.4286E-01  0.5312E+01
     -0.390  0.5827E-01  0.5328E+01
     -0.106  0.1785E+00  0.5379E+01
      0.179  0.7013E-01  0.5399E+01
      0.463  0.4844E-01  0.5413E+01
      0.748  0.1571E+00  0.5457E+01
      1.032  0.1171E+00  0.5491E+01
      1.316  0.5232E-01  0.5506E+01
      1.601  0.5056E-02  0.5507E+01
      1.885  0.8412E-01  0.5531E+01
      2.169  0.9817E-01  0.5559E+01
      2.454  0.7865E-01  0.5581E+01
      2.738  0.8527E-01  0.5605E+01
      3.022  0.1624E+00  0.5652E+01
      3.307  0.9046E-01  0.5677E+01
      3.591  0.2462E+00  0.5747E+01
      3.876  0.2016E+00  0.5805E+01
      4.160  0.1516E+00  0.5848E+01
      4.444  0.3076E+00  0.5935E+01
      4.729  0.2095E+00  0.5995E+01
      5.013  0.2361E+00  0.6062E+01
      5.297  0.2412E+00  0.6131E+01
      5.582  0.3077E+00  0.6218E+01
      5.866  0.7743E-01  0.6240E+01
      6.151 -0.3216E-03  0.6240E+01
      6.435 -0.7883E-11  0.6240E+01
      6.719  0.0000E+00  0.6240E+01
      7.004  0.0000E+00  0.6240E+01
      7.288  0.0000E+00  0.6240E+01
      7.572  0.0000E+00  0.6240E+01
      7.857  0.0000E+00  0.6240E+01
      8.141  0.0000E+00  0.6240E+01
      8.425  0.0000E+00  0.6240E+01
      8.710  0.0000E+00  0.6240E+01
      8.994  0.0000E+00  0.6240E+01
      9.279  0.0000E+00  0.6240E+01
      9.563  0.0000E+00  0.6240E+01
      9.56296086    -75.74760852  301     -1.90958468      1.00000000
    -75.748  0.0000E+00  0.0000E+00  0.0000E+00  0.0000E+00  0.0000E+00  0.0000E+00  0.0000E+00  0.0000E+00  0.0000E+00
    -75.463  0.0000E+00  0.0000E+00  0.0000E+00  0.0000E+00  0.0000E+00  0.0000E+00  0.0000E+00  0.0000E+00  0.0000E+00
    -75.179  0.0000E+00  0.0000E+00  0.0000E+00  0.0000E+00  0.0000E+00  0.0000E+00  0.0000E+00  0.0000E+00  0.0000E+00
    -74.895  0.0000E+00  0.0000E+00  0.0000E+00  0.0000E+00  0.0000E+00  0.0000E+00  0.0000E+00  0.0000E+00  0.0000E+00
    -74.610  0.0000E+00  0.0000E+00  0.0000E+00  0.0000E+00  0.0000E+00  0.0000E+00  0.0000E+00  0.0000E+00  0.0000E+00
    -74.326  0.0000E+00  0.0000E+00  0.0000E+00  0.0000E+00  0.0000E+00  0.0000E+00  0.0000E+00  0.0000E+00  0.0000E+00
    -74.041  0.0000E+00  0.0000E+00  0.0000E+00  0.0000E+00  0.0000E+00  0.0000E+00  0.0000E+00  0.0000E+00  0.0000E+00
    -73.757  0.0000E+00  0.0000E+00  0.0000E+00  0.0000E+00  0.0000E+00  0.0000E+00  0.0000E+00  0.0000E+00  0.0000E+00
    -73.473  0.0000E+00  0.0000E+00  0.0000E+00  0.0000E+00  0.0000E+00  0.0000E+00  0.0000E+00  0.0000E+00  0.0000E+00
    -73.188  0.0000E+00  0.0000E+00  0.0000E+00  0.0000E+00  0.0000E+00  0.0000E+00  0.0000E+00  0.0000E+00  0.0000E+00
    -72.904 -0.6701E-53 -0.1240E-52 -0.2175E-54 -0.3022E-53 -0.6789E-53 -0.1004E-54 -0.9477E-53 -0.5744E-55 -0.2167E-53
    -72.620 -0.5759E-31 -0.1063E-30 -0.2085E-32 -0.3333E-31 -0.7535E-31 -0.9904E-33 -0.8142E-31 -0.6583E-33 -0.1861E-31
    -72.335 -0.4227E-16 -0.7425E-16 -0.4873E-17 -0.2930E-16 -0.6652E-16 -0.3732E-17 -0.5604E-16 -0.6772E-18 -0.1322E-16
    -72.051 -0.7656E-08 -0.7682E-08 -0.6208E-08 -0.1610E-08 -0.3453E-08 -0.6078E-08 -0.3656E-08 -0.2396E-09 -0.1831E-08
    -71.766  0.6407E-05  0.5995E-05  0.5625E-05  0.1021E-05  0.2086E-05  0.4926E-05  0.3203E-05  0.2215E-06  0.1495E-05
    -71.482  0.4014E-04  0.5493E-04  0.1406E-04  0.2159E-04  0.4488E-04  0.1028E-04  0.2515E-04  0.8593E-05  0.1548E-04
    -71.198 -0.3933E-06 -0.5597E-06 -0.1142E-06 -0.2545E-06 -0.5360E-06 -0.9110E-07 -0.2397E-06 -0.1153E-06 -0.1603E-06
    -70.913 -0.2153E-11 -0.2792E-11 -0.9075E-11 -0.2296E-11 -0.4786E-12 -0.2062E-11 -0.3613E-11 -0.1837E-11 -0.3348E-12
    -70.629 -0.1673E-19 -0.1860E-19 -0.6644E-19 -0.1545E-19 -0.2385E-20 -0.1401E-19 -0.2293E-19 -0.1193E-19 -0.1843E-20
    -70.345  0.0000E+00  0.0000E+00  0.0000E+00  0.0000E+00  0.0000E+00  0.0000E+00  0.0000E+00  0.0000E+00  0.0000E+00
    -70.060  0.0000E+00  0.0000E+00  0.0000E+00  0.0000E+00  0.0000E+00  0.0000E+00  0.0000E+00  0.0000E+00  0.0000E+00
    -69.776  0.0000E+00  0.0000E+00  0.0000E+00  0.0000E+00  0.0000E+00  0.0000E+00  0.0000E+00  0.0000E+00  0.0000E+00
    -69.492  0.0000E+00  0.0000E+00  0.0000E+00  0.0000E+00  0.0000E+00  0.0000E+00  0.0000E+00  0.0000E+00  0.0000E+00
    -69.207  0.0000E+00  0.0000E+00  0.0000E+00  0.0000E+00  0.0000E+00  0.0000E+00  0.0000E+00  0.0000E+00  0.0000E+00
    -68.923  0.0000E+00  0.0000E+00  0.0000E+00  0.0000E+00  0.0000E+00  0.0000E+00  0.0000E+00  0.0000E+00  0.0000E+00
    -68.638  0.0000E+00  0.0000E+00  0.0000E+00  0.0000E+00  0.0000E+00  0.0000E+00  0.0000E+00  0.0000E+00  0.0000E+00
    -68.354  0.0000E+00  0.0000E+00  0.0000E+00  0.0000E+00  0.0000E+00  0.0000E+00  0.0000E+00  0.0000E+00  0.0000E+00
    -68.070  0.0000E+00  0.0000E+00  0.0000E+00  0.0000E+00  0.0000E+00  0.0000E+00  0.0000E+00  0.0000E+00  0.0000E+00
    -67.785  0.0000E+00  0.0000E+00  0.0000E+00  0.0000E+00  0.0000E+00  0.0000E+00  0.0000E+00  0.0000E+00  0.0000E+00
    -67.501  0.0000E+00  0.0000E+00  0.0000E+00  0.0000E+00  0.0000E+00  0.0000E+00  0.0000E+00  0.0000E+00  0.0000E+00
    -67.217  0.0000E+00  0.0000E+00  0.0000E+00  0.0000E+00  0.0000E+00  0.0000E+00  0.0000E+00  0.0000E+00  0.0000E+00
    -66.932  0.0000E+00  0.0000E+00  0.0000E+00  0.0000E+00  0.0000E+00  0.0000E+00  0.0000E+00  0.0000E+00  0.0000E+00
    -66.648  0.0000E+00  0.0000E+00  0.0000E+00  0.0000E+00  0.0000E+00  0.0000E+00  0.0000E+00  0.0000E+00  0.0000E+00
    -66.363  0.0000E+00  0.0000E+00  0.0000E+00  0.0000E+00  0.0000E+00  0.0000E+00  0.0000E+00  0.0000E+00  0.0000E+00
    -66.079  0.0000E+00  0.0000E+00  0.0000E+00  0.0000E+00  0.0000E+00  0.0000E+00  0.0000E+00  0.0000E+00  0.0000E+00
    -65.795  0.0000E+00  0.0000E+00  0.0000E+00  0.0000E+00  0.0000E+00  0.0000E+00  0.0000E+00  0.0000E+00  0.0000E+00
    -65.510  0.0000E+00  0.0000E+00  0.0000E+00  0.0000E+00  0.0000E+00  0.0000E+00  0.0000E+00  0.0000E+00  0.0000E+00
    -65.226  0.0000E+00  0.0000E+00  0.0000E+00  0.0000E+00  0.0000E+00  0.0000E+00  0.0000E+00  0.0000E+00  0.0000E+00
    -64.942  0.0000E+00  0.0000E+00  0.0000E+00  0.0000E+00  0.0000E+00  0.0000E+00  0.0000E+00  0.0000E+00  0.0000E+00
    -64.657  0.0000E+00  0.0000E+00  0.0000E+00  0.0000E+00  0.0000E+00  0.0000E+00  0.0000E+00  0.0000E+00  0.0000E+00
    -64.373  0.0000E+00  0.0000E+00  0.0000E+00  0.0000E+00  0.0000E+00  0.0000E+00  0.0000E+00  0.0000E+00  0.0000E+00
    -64.088  0.0000E+00  0.0000E+00  0.0000E+00  0.0000E+00  0.0000E+00  0.0000E+00  0.0000E+00  0.0000E+00  0.0000E+00
    -63.804  0.0000E+00  0.0000E+00  0.0000E+00  0.0000E+00  0.0000E+00  0.0000E+00  0.0000E+00  0.0000E+00  0.0000E+00
    -63.520  0.0000E+00  0.0000E+00  0.0000E+00  0.0000E+00  0.0000E+00  0.0000E+00  0.0000E+00  0.0000E+00  0.0000E+00
    -63.235  0.0000E+00  0.0000E+00  0.0000E+00  0.0000E+00  0.0000E+00  0.0000E+00  0.0000E+00  0.0000E+00  0.0000E+00
    -62.951  0.0000E+00  0.0000E+00  0.0000E+00  0.0000E+00  0.0000E+00  0.0000E+00  0.0000E+00  0.0000E+00  0.0000E+00
    -62.667  0.0000E+00  0.0000E+00  0.0000E+00  0.0000E+00  0.0000E+00  0.0000E+00  0.0000E+00  0.0000E+00  0.0000E+00
    -62.382  0.0000E+00  0.0000E+00  0.0000E+00  0.0000E+00  0.0000E+00  0.0000E+00  0.0000E+00  0.0000E+00  0.0000E+00
    -62.098  0.0000E+00  0.0000E+00  0.0000E+00  0.0000E+00  0.0000E+00  0.0000E+00  0.0000E+00  0.0000E+00  0.0000E+00
    -61.814  0.0000E+00  0.0000E+00  0.0000E+00  0.0000E+00  0.0000E+00  0.0000E+00  0.0000E+00  0.0000E+00  0.0000E+00
    -61.529  0.0000E+00  0.0000E+00  0.0000E+00  0.0000E+00  0.0000E+00  0.0000E+00  0.0000E+00  0.0000E+00  0.0000E+00
    -61.245  0.0000E+00  0.0000E+00  0.0000E+00  0.0000E+00  0.0000E+00  0.0000E+00  0.0000E+00  0.0000E+00  0.0000E+00
    -60.960  0.0000E+00  0.0000E+00  0.0000E+00  0.0000E+00  0.0000E+00  0.0000E+00  0.0000E+00  0.0000E+00  0.0000E+00
    -60.676  0.0000E+00  0.0000E+00  0.0000E+00  0.0000E+00  0.0000E+00  0.0000E+00  0.0000E+00  0.0000E+00  0.0000E+00
    -60.392  0.0000E+00  0.0000E+00  0.0000E+00  0.0000E+00  0.0000E+00  0.0000E+00  0.0000E+00  0.0000E+00  0.0000E+00
    -60.107  0.0000E+00  0.0000E+00  0.0000E+00  0.0000E+00  0.0000E+00  0.0000E+00  0.0000E+00  0.0000E+00  0.0000E+00
    -59.823  0.0000E+00  0.0000E+00  0.0000E+00  0.0000E+00  0.0000E+00  0.0000E+00  0.0000E+00  0.0000E+00  0.0000E+00
    -59.539  0.0000E+00  0.0000E+00  0.0000E+00  0.0000E+00  0.0000E+00  0.0000E+00  0.0000E+00  0.0000E+00  0.0000E+00
    -59.254  0.0000E+00  0.0000E+00  0.0000E+00  0.0000E+00  0.0000E+00  0.0000E+00  0.0000E+00  0.0000E+00  0.0000E+00
    -58.970  0.0000E+00  0.0000E+00  0.0000E+00  0.0000E+00  0.0000E+00  0.0000E+00  0.0000E+00  0.0000E+00  0.0000E+00
    -58.685  0.0000E+00  0.0000E+00  0.0000E+00  0.0000E+00  0.0000E+00  0.0000E+00  0.0000E+00  0.0000E+00  0.0000E+00
    -58.401  0.0000E+00  0.0000E+00  0.0000E+00  0.0000E+00  0.0000E+00  0.0000E+00  0.0000E+00  0.0000E+00  0.0000E+00
    -58.117  0.0000E+00  0.0000E+00  0.0000E+00  0.0000E+00  0.0000E+00  0.0000E+00  0.0000E+00  0.0000E+00  0.0000E+00
    -57.832  0.0000E+00  0.0000E+00  0.0000E+00  0.0000E+00  0.0000E+00  0.0000E+00  0.0000E+00  0.0000E+00  0.0000E+00
    -57.548  0.0000E+00  0.0000E+00  0.0000E+00  0.0000E+00  0.0000E+00  0.0000E+00  0.0000E+00  0.0000E+00  0.0000E+00
    -57.264  0.0000E+00  0.0000E+00  0.0000E+00  0.0000E+00  0.0000E+00  0.0000E+00  0.0000E+00  0.0000E+00  0.0000E+00
    -56.979  0.0000E+00  0.0000E+00  0.0000E+00  0.0000E+00  0.0000E+00  0.0000E+00  0.0000E+00  0.0000E+00  0.0000E+00
    -56.695  0.0000E+00  0.0000E+00  0.0000E+00  0.0000E+00  0.0000E+00  0.0000E+00  0.0000E+00  0.0000E+00  0.0000E+00
    -56.411  0.0000E+00  0.0000E+00  0.0000E+00  0.0000E+00  0.0000E+00  0.0000E+00  0.0000E+00  0.0000E+00  0.0000E+00
    -56.126  0.0000E+00  0.0000E+00  0.0000E+00  0.0000E+00  0.0000E+00  0.0000E+00  0.0000E+00  0.0000E+00  0.0000E+00
    -55.842  0.0000E+00  0.0000E+00  0.0000E+00  0.0000E+00  0.0000E+00  0.0000E+00  0.0000E+00  0.0000E+00  0.0000E+00
    -55.557  0.0000E+00  0.0000E+00  0.0000E+00  0.0000E+00  0.0000E+00  0.0000E+00  0.0000E+00  0.0000E+00  0.0000E+00
    -55.273  0.0000E+00  0.0000E+00  0.0000E+00  0.0000E+00  0.0000E+00  0.0000E+00  0.0000E+00  0.0000E+00  0.0000E+00
    -54.989  0.0000E+00  0.0000E+00  0.0000E+00  0.0000E+00  0.0000E+00  0.0000E+00  0.0000E+00  0.0000E+00  0.0000E+00
    -54.704  0.0000E+00  0.0000E+00  0.0000E+00  0.0000E+00  0.0000E+00  0.0000E+00  0.0000E+00  0.0000E+00  0.0000E+00
    -54.420  0.0000E+00  0.0000E+00  0.0000E+00  0.0000E+00  0.0000E+00  0.0000E+00  0.0000E+00  0.0000E+00  0.0000E+00
    -54.136  0.0000E+00  0.0000E+00  0.0000E+00  0.0000E+00  0.0000E+00  0.0000E+00  0.0000E+00  0.0000E+00  0.0000E+00
    -53.851  0.0000E+00  0.0000E+00  0.0000E+00  0.0000E+00  0.0000E+00  0.0000E+00  0.0000E+00  0.0000E+00  0.0000E+00
    -53.567  0.0000E+00  0.0000E+00  0.0000E+00  0.0000E+00  0.0000E+00  0.0000E+00  0.0000E+00  0.0000E+00  0.0000E+00
    -53.282  0.0000E+00  0.0000E+00  0.0000E+00  0.0000E+00  0.0000E+00  0.0000E+00  0.0000E+00  0.0000E+00  0.0000E+00
    -52.998  0.0000E+00  0.0000E+00  0.0000E+00  0.0000E+00  0.0000E+00  0.0000E+00  0.0000E+00  0.0000E+00  0.0000E+00
    -52.714  0.0000E+00  0.0000E+00  0.0000E+00  0.0000E+00  0.0000E+00  0.0000E+00  0.0000E+00  0.0000E+00  0.0000E+00
    -52.429  0.0000E+00  0.0000E+00  0.0000E+00  0.0000E+00  0.0000E+00  0.0000E+00  0.0000E+00  0.0000E+00  0.0000E+00
    -52.145  0.0000E+00  0.0000E+00  0.0000E+00  0.0000E+00  0.0000E+00  0.0000E+00  0.0000E+00  0.0000E+00  0.0000E+00
    -51.861  0.0000E+00  0.0000E+00  0.0000E+00  0.0000E+00  0.0000E+00  0.0000E+00  0.0000E+00  0.0000E+00  0.0000E+00
    -51.576  0.0000E+00  0.0000E+00  0.0000E+00  0.0000E+00  0.0000E+00  0.0000E+00  0.0000E+00  0.0000E+00  0.0000E+00
    -51.292  0.0000E+00  0.0000E+00  0.0000E+00  0.0000E+00  0.0000E+00  0.0000E+00  0.0000E+00  0.0000E+00  0.0000E+00
    -51.008  0.0000E+00  0.0000E+00  0.0000E+00  0.0000E+00  0.0000E+00  0.0000E+00  0.0000E+00  0.0000E+00  0.0000E+00
    -50.723  0.0000E+00  0.0000E+00  0.0000E+00  0.0000E+00  0.0000E+00  0.0000E+00  0.0000E+00  0.0000E+00  0.0000E+00
    -50.439  0.0000E+00  0.0000E+00  0.0000E+00  0.0000E+00  0.0000E+00  0.0000E+00  0.0000E+00  0.0000E+00  0.0000E+00
    -50.154  0.0000E+00  0.0000E+00  0.0000E+00  0.0000E+00  0.0000E+00  0.0000E+00  0.0000E+00  0.0000E+00  0.0000E+00
    -49.870  0.0000E+00  0.0000E+00  0.0000E+00  0.0000E+00  0.0000E+00  0.0000E+00  0.0000E+00  0.0000E+00  0.0000E+00
    -49.586  0.0000E+00  0.0000E+00  0.0000E+00  0.0000E+00  0.0000E+00  0.0000E+00  0.0000E+00  0.0000E+00  0.0000E+00
    -49.301  0.0000E+00  0.0000E+00  0.0000E+00  0.0000E+00  0.0000E+00  0.0000E+00  0.0000E+00  0.0000E+00  0.0000E+00
    -49.017  0.0000E+00  0.0000E+00  0.0000E+00  0.0000E+00  0.0000E+00  0.0000E+00  0.0000E+00  0.0000E+00  0.0000E+00
    -48.733  0.0000E+00  0.0000E+00  0.0000E+00  0.0000E+00  0.0000E+00  0.0000E+00  0.0000E+00  0.0000E+00  0.0000E+00
    -48.448  0.0000E+00  0.0000E+00  0.0000E+00  0.0000E+00  0.0000E+00  0.0000E+00  0.0000E+00  0.0000E+00  0.0000E+00
    -48.164  0.0000E+00  0.0000E+00  0.0000E+00  0.0000E+00  0.0000E+00  0.0000E+00  0.0000E+00  0.0000E+00  0.0000E+00
    -47.879  0.0000E+00  0.0000E+00  0.0000E+00  0.0000E+00  0.0000E+00  0.0000E+00  0.0000E+00  0.0000E+00  0.0000E+00
    -47.595  0.0000E+00  0.0000E+00  0.0000E+00  0.0000E+00  0.0000E+00  0.0000E+00  0.0000E+00  0.0000E+00  0.0000E+00
    -47.311  0.0000E+00  0.0000E+00  0.0000E+00  0.0000E+00  0.0000E+00  0.0000E+00  0.0000E+00  0.0000E+00  0.0000E+00
    -47.026  0.0000E+00  0.0000E+00  0.0000E+00  0.0000E+00  0.0000E+00  0.0000E+00  0.0000E+00  0.0000E+00  0.0000E+00
    -46.742  0.0000E+00  0.0000E+00  0.0000E+00  0.0000E+00  0.0000E+00  0.0000E+00  0.0000E+00  0.0000E+00  0.0000E+00
    -46.458  0.0000E+00  0.0000E+00  0.0000E+00  0.0000E+00  0.0000E+00  0.0000E+00  0.0000E+00  0.0000E+00  0.0000E+00
    -46.173  0.0000E+00  0.0000E+00  0.0000E+00  0.0000E+00  0.0000E+00  0.0000E+00  0.0000E+00  0.0000E+00  0.0000E+00
    -45.889  0.0000E+00  0.0000E+00  0.0000E+00  0.0000E+00  0.0000E+00  0.0000E+00  0.0000E+00  0.0000E+00  0.0000E+00
    -45.605  0.0000E+00  0.0000E+00  0.0000E+00  0.0000E+00  0.0000E+00  0.0000E+00  0.0000E+00  0.0000E+00  0.0000E+00
    -45.320  0.0000E+00  0.0000E+00  0.0000E+00  0.0000E+00  0.0000E+00  0.0000E+00  0.0000E+00  0.0000E+00  0.0000E+00
    -45.036  0.0000E+00  0.0000E+00  0.0000E+00  0.0000E+00  0.0000E+00  0.0000E+00  0.0000E+00  0.0000E+00  0.0000E+00
    -44.751  0.0000E+00  0.0000E+00  0.0000E+00  0.0000E+00  0.0000E+00  0.0000E+00  0.0000E+00  0.0000E+00  0.0000E+00
    -44.467  0.0000E+00  0.0000E+00  0.0000E+00  0.0000E+00  0.0000E+00  0.0000E+00  0.0000E+00  0.0000E+00  0.0000E+00
    -44.183  0.0000E+00  0.0000E+00  0.0000E+00  0.0000E+00  0.0000E+00  0.0000E+00  0.0000E+00  0.0000E+00  0.0000E+00
    -43.898  0.0000E+00  0.0000E+00  0.0000E+00  0.0000E+00  0.0000E+00  0.0000E+00  0.0000E+00  0.0000E+00  0.0000E+00
    -43.614  0.0000E+00  0.0000E+00  0.0000E+00  0.0000E+00  0.0000E+00  0.0000E+00  0.0000E+00  0.0000E+00  0.0000E+00
    -43.330  0.0000E+00  0.0000E+00  0.0000E+00  0.0000E+00  0.0000E+00  0.0000E+00  0.0000E+00  0.0000E+00  0.0000E+00
    -43.045  0.0000E+00  0.0000E+00  0.0000E+00  0.0000E+00  0.0000E+00  0.0000E+00  0.0000E+00  0.0000E+00  0.0000E+00
    -42.761  0.0000E+00  0.0000E+00  0.0000E+00  0.0000E+00  0.0000E+00  0.0000E+00  0.0000E+00  0.0000E+00  0.0000E+00
    -42.476  0.0000E+00  0.0000E+00  0.0000E+00  0.0000E+00  0.0000E+00  0.0000E+00  0.0000E+00  0.0000E+00  0.0000E+00
    -42.192  0.0000E+00  0.0000E+00  0.0000E+00  0.0000E+00  0.0000E+00  0.0000E+00  0.0000E+00  0.0000E+00  0.0000E+00
    -41.908  0.0000E+00  0.0000E+00  0.0000E+00  0.0000E+00  0.0000E+00  0.0000E+00  0.0000E+00  0.0000E+00  0.0000E+00
    -41.623  0.0000E+00  0.0000E+00  0.0000E+00  0.0000E+00  0.0000E+00  0.0000E+00  0.0000E+00  0.0000E+00  0.0000E+00
    -41.339  0.0000E+00  0.0000E+00  0.0000E+00  0.0000E+00  0.0000E+00  0.0000E+00  0.0000E+00  0.0000E+00  0.0000E+00
    -41.055  0.0000E+00  0.0000E+00  0.0000E+00  0.0000E+00  0.0000E+00  0.0000E+00  0.0000E+00  0.0000E+00  0.0000E+00
    -40.770  0.0000E+00  0.0000E+00  0.0000E+00  0.0000E+00  0.0000E+00  0.0000E+00  0.0000E+00  0.0000E+00  0.0000E+00
    -40.486  0.0000E+00  0.0000E+00  0.0000E+00  0.0000E+00  0.0000E+00  0.0000E+00  0.0000E+00  0.0000E+00  0.0000E+00
    -40.202  0.0000E+00  0.0000E+00  0.0000E+00  0.0000E+00  0.0000E+00  0.0000E+00  0.0000E+00  0.0000E+00  0.0000E+00
    -39.917  0.0000E+00  0.0000E+00  0.0000E+00  0.0000E+00  0.0000E+00  0.0000E+00  0.0000E+00  0.0000E+00  0.0000E+00
    -39.633  0.0000E+00  0.0000E+00  0.0000E+00  0.0000E+00  0.0000E+00  0.0000E+00  0.0000E+00  0.0000E+00  0.0000E+00
    -39.348  0.0000E+00  0.0000E+00  0.0000E+00  0.0000E+00  0.0000E+00  0.0000E+00  0.0000E+00  0.0000E+00  0.0000E+00
    -39.064  0.0000E+00  0.0000E+00  0.0000E+00  0.0000E+00  0.0000E+00  0.0000E+00  0.0000E+00  0.0000E+00  0.0000E+00
    -38.780  0.0000E+00  0.0000E+00  0.0000E+00  0.0000E+00  0.0000E+00  0.0000E+00  0.0000E+00  0.0000E+00  0.0000E+00
    -38.495  0.0000E+00  0.0000E+00  0.0000E+00  0.0000E+00  0.0000E+00  0.0000E+00  0.0000E+00  0.0000E+00  0.0000E+00
    -38.211  0.0000E+00  0.0000E+00  0.0000E+00  0.0000E+00  0.0000E+00  0.0000E+00  0.0000E+00  0.0000E+00  0.0000E+00
    -37.927  0.0000E+00  0.0000E+00  0.0000E+00  0.0000E+00  0.0000E+00  0.0000E+00  0.0000E+00  0.0000E+00  0.0000E+00
    -37.642  0.0000E+00  0.0000E+00  0.0000E+00  0.0000E+00  0.0000E+00  0.0000E+00  0.0000E+00  0.0000E+00  0.0000E+00
    -37.358  0.0000E+00  0.0000E+00  0.0000E+00  0.0000E+00  0.0000E+00  0.0000E+00  0.0000E+00  0.0000E+00  0.0000E+00
    -37.073  0.0000E+00  0.0000E+00  0.0000E+00  0.0000E+00  0.0000E+00  0.0000E+00  0.0000E+00  0.0000E+00  0.0000E+00
    -36.789  0.0000E+00  0.0000E+00  0.0000E+00  0.0000E+00  0.0000E+00  0.0000E+00  0.0000E+00  0.0000E+00  0.0000E+00
    -36.505  0.0000E+00  0.0000E+00  0.0000E+00  0.0000E+00  0.0000E+00  0.0000E+00  0.0000E+00  0.0000E+00  0.0000E+00
    -36.220  0.0000E+00  0.0000E+00  0.0000E+00  0.0000E+00  0.0000E+00  0.0000E+00  0.0000E+00  0.0000E+00  0.0000E+00
    -35.936  0.0000E+00  0.0000E+00  0.0000E+00  0.0000E+00  0.0000E+00  0.0000E+00  0.0000E+00  0.0000E+00  0.0000E+00
    -35.652  0.0000E+00  0.0000E+00  0.0000E+00  0.0000E+00  0.0000E+00  0.0000E+00  0.0000E+00  0.0000E+00  0.0000E+00
    -35.367  0.0000E+00  0.0000E+00  0.0000E+00  0.0000E+00  0.0000E+00  0.0000E+00  0.0000E+00  0.0000E+00  0.0000E+00
    -35.083  0.0000E+00  0.0000E+00  0.0000E+00  0.0000E+00  0.0000E+00  0.0000E+00  0.0000E+00  0.0000E+00  0.0000E+00
    -34.799  0.0000E+00  0.0000E+00  0.0000E+00  0.0000E+00  0.0000E+00  0.0000E+00  0.0000E+00  0.0000E+00  0.0000E+00
    -34.514  0.0000E+00  0.0000E+00  0.0000E+00  0.0000E+00  0.0000E+00  0.0000E+00  0.0000E+00  0.0000E+00  0.0000E+00
    -34.230  0.0000E+00  0.0000E+00  0.0000E+00  0.0000E+00  0.0000E+00  0.0000E+00  0.0000E+00  0.0000E+00  0.0000E+00
    -33.945  0.0000E+00  0.0000E+00  0.0000E+00  0.0000E+00  0.0000E+00  0.0000E+00  0.0000E+00  0.0000E+00  0.0000E+00
    -33.661  0.0000E+00  0.0000E+00  0.0000E+00  0.0000E+00  0.0000E+00  0.0000E+00  0.0000E+00  0.0000E+00  0.0000E+00
    -33.377  0.0000E+00  0.0000E+00  0.0000E+00  0.0000E+00  0.0000E+00  0.0000E+00  0.0000E+00  0.0000E+00  0.0000E+00
    -33.092  0.0000E+00  0.0000E+00  0.0000E+00  0.0000E+00  0.0000E+00  0.0000E+00  0.0000E+00  0.0000E+00  0.0000E+00
    -32.808  0.0000E+00  0.0000E+00  0.0000E+00  0.0000E+00  0.0000E+00  0.0000E+00  0.0000E+00  0.0000E+00  0.0000E+00
    -32.524  0.0000E+00  0.0000E+00  0.0000E+00  0.0000E+00  0.0000E+00  0.0000E+00  0.0000E+00  0.0000E+00  0.0000E+00
    -32.239  0.0000E+00  0.0000E+00  0.0000E+00  0.0000E+00  0.0000E+00  0.0000E+00  0.0000E+00  0.0000E+00  0.0000E+00
    -31.955  0.0000E+00  0.0000E+00  0.0000E+00  0.0000E+00  0.0000E+00  0.0000E+00  0.0000E+00  0.0000E+00  0.0000E+00
    -31.670  0.0000E+00  0.0000E+00  0.0000E+00  0.0000E+00  0.0000E+00  0.0000E+00  0.0000E+00  0.0000E+00  0.0000E+00
    -31.386  0.0000E+00  0.0000E+00  0.0000E+00  0.0000E+00  0.0000E+00  0.0000E+00  0.0000E+00  0.0000E+00  0.0000E+00