       N       E                     dE             d eps       ncg     rms          rms(c)
DAV:   1     0.816869754721E+04    0.81687E+04   -0.65129E+05  6312   0.139E+03
DAV:   2     0.811025079770E+02   -0.80876E+04   -0.79119E+04  5352   0.464E+02
DAV:   3    -0.254743108803E+03   -0.33585E+03   -0.33007E+03  5512   0.117E+02
DAV:   4    -0.260610707891E+03   -0.58676E+01   -0.58566E+01  5304   0.161E+01
DAV:   5    -0.260854333111E+03   -0.24363E+00   -0.24359E+00  6560   0.288E+00    0.684E+01
DAV:   6    -0.245064691077E+03    0.15790E+02   -0.58745E+02  5408   0.734E+01    0.783E+01
DAV:   7    -0.217455625545E+03    0.27609E+02   -0.71911E+01  5688   0.401E+01    0.341E+01
DAV:   8    -0.232004017164E+03   -0.14548E+02   -0.31129E+01  5856   0.594E+01    0.395E+01
DAV:   9    -0.218018287027E+03    0.13986E+02   -0.33492E+01  5768   0.537E+01    0.150E+01
DAV:  10    -0.215235645015E+03    0.27826E+01   -0.77605E+00  5984   0.156E+01    0.648E+00
DAV:  11    -0.215058252034E+03    0.17739E+00   -0.32160E+00  5720   0.757E+00    0.447E+00
DAV:  12    -0.214949253839E+03    0.10900E+00   -0.49286E-01  5968   0.339E+00    0.315E+00
DAV:  13    -0.214930545065E+03    0.18709E-01   -0.20828E-01  6600   0.346E+00    0.251E+00
DAV:  14    -0.214934733538E+03   -0.41885E-02   -0.35967E-01  5360   0.381E+00    0.143E+00
DAV:  15    -0.214930068920E+03    0.46646E-02   -0.74635E-02  5376   0.176E+00    0.115E+00
DAV:  16    -0.214914167672E+03    0.15901E-01   -0.37067E-02  5424   0.186E+00    0.547E-01
DAV:  17    -0.214913875158E+03    0.29251E-03   -0.13776E-02  6432   0.707E-01    0.373E-01
DAV:  18    -0.214913980116E+03   -0.10496E-03   -0.52466E-03  5296   0.276E-01    0.274E-01
DAV:  19    -0.214914442299E+03   -0.46218E-03   -0.20605E-03  5192   0.279E-01    0.217E-01
DAV:  20    -0.214915021069E+03   -0.57877E-03   -0.92816E-04  5440   0.230E-01    0.106E-01
DAV:  21    -0.214915961280E+03   -0.94021E-03   -0.36106E-04  6256   0.120E-01    0.709E-02
DAV:  22    -0.214916817134E+03   -0.85585E-03   -0.28343E-04  5208   0.660E-02    0.814E-02
DAV:  23    -0.214917637739E+03   -0.82061E-03   -0.13145E-04  4672   0.499E-02    0.703E-02
DAV:  24    -0.214918343541E+03   -0.70580E-03   -0.14151E-04  5192   0.674E-02    0.598E-02
DAV:  25    -0.214918545154E+03   -0.20161E-03   -0.46811E-05  4664   0.253E-02    0.445E-02
DAV:  26    -0.214918933346E+03   -0.38819E-03   -0.37497E-05  4176   0.239E-02    0.269E-02
DAV:  27    -0.214919277918E+03   -0.34457E-03   -0.28229E-05  3496   0.294E-02    0.165E-02
DAV:  28    -0.214919403499E+03   -0.12558E-03   -0.12229E-05  3200   0.128E-02    0.243E-02
DAV:  29    -0.214919498308E+03   -0.94809E-04   -0.90458E-06  3072   0.105E-02    0.200E-02
DAV:  30    -0.214919547915E+03   -0.49607E-04   -0.17699E-06  3040   0.150E-02    0.660E-03
DAV:  31    -0.214919592377E+03   -0.44463E-04   -0.38031E-06  3024   0.929E-03    0.540E-03
DAV:  32    -0.214919612366E+03   -0.19988E-04   -0.27818E-06  2960   0.468E-03    0.644E-03
DAV:  33    -0.214919625688E+03   -0.13322E-04   -0.80255E-07  2888   0.347E-03    0.327E-03
DAV:  34    -0.214919637384E+03   -0.11696E-04   -0.17805E-07  2880   0.330E-03    0.179E-03
DAV:  35    -0.214919643337E+03   -0.59535E-05   -0.31150E-07  2872   0.226E-03
   1 F= -.24346459E+03 E0= -.24345954E+03  d E =-.243465E+03
       N       E                     dE             d eps       ncg     rms          rms(c)
DAV:   1    -0.199458581432E+03    0.15461E+02   -0.42967E+02  6576   0.160E+02    0.221E+01
DAV:   2    -0.215533373964E+03   -0.16075E+02   -0.16579E+02  5192   0.267E+01    0.107E+01
DAV:   3    -0.215878713958E+03   -0.34534E+00   -0.88239E+00  7256   0.155E+01    0.791E+00
DAV:   4    -0.215800112383E+03    0.78602E-01   -0.10069E+00  5656   0.106E+01    0.654E+00
DAV:   5    -0.215714973790E+03    0.85139E-01   -0.23152E-01  5984   0.578E+00    0.546E+00
DAV:   6    -0.215695408479E+03    0.19565E-01   -0.16471E-01  5616   0.218E+00    0.440E+00
DAV:   7    -0.215689508397E+03    0.59001E-02   -0.31879E-02  6704   0.149E+00    0.240E+00
DAV:   8    -0.215687938597E+03    0.15698E-02   -0.47681E-02  5424   0.148E+00    0.840E-01
DAV:   9    -0.215689028358E+03   -0.10898E-02   -0.12930E-02  5576   0.817E-01    0.677E-01
DAV:  10    -0.215689416201E+03   -0.38784E-03   -0.47020E-03  5296   0.173E-01    0.595E-01
DAV:  11    -0.215688398688E+03    0.10175E-02   -0.47129E-04  5296   0.303E-01    0.376E-01
DAV:  12    -0.215687929564E+03    0.46912E-03   -0.49915E-04  7904   0.290E-01    0.122E-01
DAV:  13    -0.215687950426E+03   -0.20862E-04   -0.60175E-04  5560   0.135E-01    0.763E-02
DAV:  14    -0.215687965542E+03   -0.15116E-04   -0.14041E-04  5056   0.306E-02    0.717E-02
DAV:  15    -0.215687964660E+03    0.88220E-06   -0.98898E-07  2928   0.401E-03
   2 F= -.24419873E+03 E0= -.24419207E+03  d E =-.734145E+00
       N       E                     dE             d eps       ncg     rms          rms(c)
DAV:   1    -0.208835768703E+03    0.68522E+01   -0.18987E+02  6512   0.113E+02    0.112E+01
DAV:   2    -0.215703843016E+03   -0.68681E+01   -0.70673E+01  5168   0.158E+01    0.531E+00
DAV:   3    -0.215868524338E+03   -0.16468E+00   -0.30809E+00  7584   0.791E+00    0.405E+00
DAV:   4    -0.215847868261E+03    0.20656E-01   -0.29180E-01  5600   0.511E+00    0.340E+00
DAV:   5    -0.215833131328E+03    0.14737E-01   -0.56181E-02  5696   0.301E+00    0.283E+00
DAV:   6    -0.215822856726E+03    0.10275E-01   -0.31122E-02  5520   0.142E+00    0.225E+00
DAV:   7    -0.215822637710E+03    0.21902E-03   -0.19049E-02  6008   0.928E-01    0.908E-01
DAV:   8    -0.215822062070E+03    0.57564E-03   -0.15892E-02  5640   0.877E-01    0.389E-01
DAV:   9    -0.215822495835E+03   -0.43376E-03   -0.33239E-03  5816   0.465E-01    0.364E-01
DAV:  10    -0.215822621771E+03   -0.12594E-03   -0.17408E-03  5184   0.116E-01    0.301E-01
DAV:  11    -0.215822255586E+03    0.36619E-03   -0.18037E-04  5352   0.216E-01    0.144E-01
DAV:  12    -0.215822218919E+03    0.36666E-04   -0.18057E-04  6752   0.132E-01    0.518E-02
DAV:  13    -0.215822221009E+03   -0.20899E-05   -0.15214E-04  5048   0.771E-02    0.327E-02
DAV:  14    -0.215822224551E+03   -0.35418E-05   -0.29929E-05  4048   0.137E-02
   3 F= -.24431032E+03 E0= -.24430270E+03  d E =-.845729E+00
       N       E                     dE             d eps       ncg     rms          rms(c)
DAV:   1    -0.215770414909E+03    0.51806E-01   -0.15562E+00  6520   0.103E+01    0.638E-01
DAV:   2    -0.215820580157E+03   -0.50165E-01   -0.51400E-01  5024   0.130E+00    0.296E-01
DAV:   3    -0.215821635883E+03   -0.10557E-02   -0.13477E-02  6256   0.289E-01    0.205E-01
DAV:   4    -0.215821611573E+03    0.24309E-04   -0.66454E-04  5784   0.224E-01    0.184E-01
DAV:   5    -0.215821502210E+03    0.10936E-03   -0.13310E-04  5240   0.175E-01    0.144E-01
DAV:   6    -0.215821505225E+03   -0.30147E-05   -0.81118E-05  5272   0.130E-01
   4 F= -.24431162E+03 E0= -.24430406E+03  d E =-.847036E+00
       N       E                     dE             d eps       ncg     rms          rms(c)
DAV:   1    -0.214823178991E+03    0.99832E+00   -0.32001E+01  6504   0.473E+01    0.334E+00
DAV:   2    -0.215875804525E+03   -0.10526E+01   -0.10768E+01  5056   0.612E+00    0.138E+00
DAV:   3    -0.215905244498E+03   -0.29440E-01   -0.32096E-01  7104   0.200E+00    0.116E+00
DAV:   4    -0.215902711242E+03    0.25333E-02   -0.28226E-02  5448   0.154E+00    0.101E+00
DAV:   5    -0.215900482479E+03    0.22288E-02   -0.52334E-03  5368   0.753E-01    0.864E-01
DAV:   6    -0.215900369613E+03    0.11287E-03   -0.21304E-03  5456   0.270E-01    0.725E-01
DAV:   7    -0.215901274288E+03   -0.90468E-03   -0.10762E-03  6648   0.293E-01    0.311E-01
DAV:   8    -0.215901739070E+03   -0.46478E-03   -0.15020E-03  5984   0.274E-01    0.979E-02
DAV:   9    -0.215901786492E+03   -0.47422E-04   -0.42947E-04  6120   0.102E-01    0.794E-02
DAV:  10    -0.215901788250E+03   -0.17572E-05   -0.98288E-05  4952   0.526E-02
   5 F= -.24437402E+03 E0= -.24436579E+03  d E =-.623984E-01
       N       E                     dE             d eps       ncg     rms          rms(c)
DAV:   1    -0.215566680284E+03    0.33511E+00   -0.11286E+01  6504   0.281E+01    0.180E+00
DAV:   2    -0.215929144312E+03   -0.36246E+00   -0.37087E+00  5040   0.354E+00    0.771E-01
DAV:   3    -0.215938154992E+03   -0.90107E-02   -0.98019E-02  6736   0.830E-01    0.602E-01
DAV:   4    -0.215937528133E+03    0.62686E-03   -0.50806E-03  5464   0.627E-01    0.536E-01
DAV:   5    -0.215936795173E+03    0.73296E-03   -0.81079E-04  5352   0.393E-01    0.452E-01
DAV:   6    -0.215936934244E+03   -0.13907E-03   -0.44047E-04  5656   0.203E-01    0.335E-01
DAV:   7    -0.215937340733E+03   -0.40649E-03   -0.69482E-04  5272   0.199E-01    0.841E-02
DAV:   8    -0.215937388726E+03   -0.47993E-04   -0.34443E-04  6640   0.116E-01    0.451E-02
DAV:   9    -0.215937397096E+03   -0.83703E-05   -0.10012E-04  4912   0.430E-02    0.385E-02
DAV:  10    -0.215937398414E+03   -0.13176E-05   -0.12754E-05  2920   0.211E-02
   6 F= -.24439902E+03 E0= -.24439036E+03  d E =-.873921E-01
       N       E                     dE             d eps       ncg     rms          rms(c)
DAV:   1    -0.214459042325E+03    0.14784E+01   -0.44802E+01  6504   0.564E+01    0.411E+00
DAV:   2    -0.215945888654E+03   -0.14868E+01   -0.15211E+01  5120   0.732E+00    0.171E+00
DAV:   3    -0.215987335358E+03   -0.41447E-01   -0.46835E-01  7344   0.263E+00    0.146E+00
DAV:   4    -0.215982919710E+03    0.44156E-02   -0.41322E-02  5512   0.195E+00    0.125E+00
DAV:   5    -0.215979667919E+03    0.32518E-02   -0.85377E-03  5400   0.916E-01    0.107E+00
DAV:   6    -0.215979529548E+03    0.13837E-03   -0.34624E-03  5608   0.321E-01    0.916E-01
DAV:   7    -0.215980481508E+03   -0.95196E-03   -0.11503E-03  6792   0.289E-01    0.502E-01
DAV:   8    -0.215981210089E+03   -0.72858E-03   -0.20415E-03  5672   0.373E-01    0.137E-01
DAV:   9    -0.215981313647E+03   -0.10356E-03   -0.78114E-04  6384   0.145E-01    0.105E-01
DAV:  10    -0.215981302014E+03    0.11633E-04   -0.19566E-04  5008   0.792E-02    0.702E-02
DAV:  11    -0.215981306941E+03   -0.49267E-05   -0.35279E-05  4360   0.617E-02
   7 F= -.24442163E+03 E0= -.24441214E+03  d E =-.110010E+00
       N       E                     dE             d eps       ncg     rms          rms(c)
DAV:   1    -0.214639457800E+03    0.13418E+01   -0.52978E+01  6384   0.545E+01    0.364E+00
DAV:   2    -0.216028742046E+03   -0.13893E+01   -0.14227E+01  5072   0.720E+00    0.151E+00
DAV:   3    -0.216064093707E+03   -0.35352E-01   -0.38203E-01  7232   0.225E+00    0.128E+00
DAV:   4    -0.216060179404E+03    0.39143E-02   -0.28364E-02  5560   0.169E+00    0.111E+00
DAV:   5    -0.216056999476E+03    0.31799E-02   -0.52689E-03  5416   0.881E-01    0.925E-01
DAV:   6    -0.216057196344E+03   -0.19687E-03   -0.32502E-03  5736   0.372E-01    0.696E-01
DAV:   7    -0.216058865232E+03   -0.16689E-02   -0.22421E-03  5976   0.388E-01    0.219E-01
DAV:   8    -0.216058951827E+03   -0.86595E-04   -0.16819E-03  5784   0.255E-01    0.101E-01
DAV:   9    -0.216058998424E+03   -0.46597E-04   -0.32591E-04  6232   0.806E-02    0.870E-02
DAV:  10    -0.216058993975E+03    0.44485E-05   -0.85713E-05  4920   0.557E-02
   8 F= -.24446931E+03 E0= -.24445874E+03  d E =-.476793E-01
       N       E                     dE             d eps       ncg     rms          rms(c)
DAV:   1    -0.215919210860E+03    0.13979E+00   -0.60638E+00  6368   0.183E+01    0.109E+00
DAV:   2    -0.216075248966E+03   -0.15604E+00   -0.15975E+00  5000   0.240E+00    0.501E-01
DAV:   3    -0.216078610428E+03   -0.33615E-02   -0.38615E-02  6480   0.482E-01    0.355E-01
DAV:   4    -0.216078334473E+03    0.27595E-03   -0.18952E-03  5424   0.241E-01    0.313E-01
DAV:   5    -0.216078183409E+03    0.15106E-03   -0.20375E-04  5344   0.190E-01    0.268E-01
DAV:   6    -0.216078254727E+03   -0.71318E-04   -0.13574E-04  5912   0.180E-01    0.188E-01
DAV:   7    -0.216078289924E+03   -0.35197E-04   -0.37687E-04  6440   0.159E-01    0.335E-02
DAV:   8    -0.216078303307E+03   -0.13383E-04   -0.15433E-04  6144   0.521E-02    0.289E-02
DAV:   9    -0.216078305328E+03   -0.20210E-05   -0.26763E-05  3344   0.194E-02
   9 F= -.24447846E+03 E0= -.24446753E+03  d E =-.568306E-01
       N       E                     dE             d eps       ncg     rms          rms(c)
DAV:   1    -0.215465919061E+03    0.61238E+00   -0.24227E+01  6392   0.366E+01    0.233E+00
DAV:   2    -0.216094731270E+03   -0.62881E+00   -0.64453E+00  5048   0.484E+00    0.100E+00
DAV:   3    -0.216109670426E+03   -0.14939E-01   -0.15908E-01  7040   0.134E+00    0.791E-01
DAV:   4    -0.216107997821E+03    0.16726E-02   -0.10152E-02  5528   0.100E+00    0.692E-01
DAV:   5    -0.216106663055E+03    0.13348E-02   -0.18514E-03  5352   0.570E-01    0.573E-01
DAV:   6    -0.216107190643E+03   -0.52759E-03   -0.13731E-03  5896   0.296E-01    0.384E-01
DAV:   7    -0.216107607196E+03   -0.41655E-03   -0.11554E-03  5688   0.248E-01    0.117E-01
DAV:   8    -0.216107603978E+03    0.32184E-05   -0.57249E-04  6128   0.142E-01    0.587E-02
DAV:   9    -0.216107619397E+03   -0.15419E-04   -0.10225E-04  6032   0.470E-02    0.489E-02
DAV:  10    -0.216107620004E+03   -0.60699E-06   -0.34268E-05  4192   0.345E-02
  10 F= -.24448742E+03 E0= -.24447577E+03  d E =-.657914E-01
       N       E                     dE             d eps       ncg     rms          rms(c)
DAV:   1    -0.214366788520E+03    0.17408E+01   -0.67843E+01  6376   0.598E+01    0.425E+00
DAV:   2    -0.216144949442E+03   -0.17782E+01   -0.18208E+01  5080   0.800E+00    0.177E+00
DAV:   3    -0.216186206426E+03   -0.41257E-01   -0.47812E-01  7232   0.254E+00    0.148E+00
DAV:   4    -0.216182606280E+03    0.36001E-02   -0.37518E-02  5576   0.194E+00    0.130E+00
DAV:   5    -0.216177854812E+03    0.47515E-02   -0.71684E-03  5392   0.101E+00    0.108E+00
DAV:   6    -0.216177919749E+03   -0.64937E-04   -0.41344E-03  5720   0.348E-01    0.854E-01
DAV:   7    -0.216178766529E+03   -0.84678E-03   -0.24730E-03  5704   0.419E-01    0.291E-01
DAV:   8    -0.216178854930E+03   -0.88402E-04   -0.22787E-03  5800   0.283E-01    0.123E-01
DAV:   9    -0.216178932835E+03   -0.77905E-04   -0.49251E-04  6192   0.108E-01    0.108E-01
DAV:  10    -0.216178921491E+03    0.11345E-04   -0.11271E-04  4920   0.589E-02    0.650E-02
DAV:  11    -0.216178915627E+03    0.58638E-05   -0.19284E-05  3288   0.719E-02
  11 F= -.24452457E+03 E0= -.24451176E+03  d E =-.371452E-01
       N       E                     dE             d eps       ncg     rms          rms(c)
DAV:   1    -0.216119974112E+03    0.58947E-01   -0.26955E+00  6368   0.119E+01    0.726E-01
DAV:   2    -0.216188592050E+03   -0.68618E-01   -0.70189E-01  5016   0.157E+00    0.334E-01
DAV:   3    -0.216189790019E+03   -0.11980E-02   -0.15523E-02  6192   0.283E-01    0.231E-01
DAV:   4    -0.216189679422E+03    0.11060E-03   -0.52651E-04  5720   0.966E-02    0.197E-01
DAV:   5    -0.216189623871E+03    0.55551E-04   -0.59706E-05  5088   0.713E-02    0.164E-01
DAV:   6    -0.216189615380E+03    0.84906E-05   -0.92814E-05  5728   0.116E-01
  12 F= -.24452848E+03 E0= -.24451546E+03  d E =-.410526E-01
       N       E                     dE             d eps       ncg     rms          rms(c)
DAV:   1    -0.215928462499E+03    0.26116E+00   -0.10779E+01  6392   0.238E+01    0.150E+00
DAV:   2    -0.216203476727E+03   -0.27501E+00   -0.28132E+00  5096   0.317E+00    0.675E-01
DAV:   3    -0.216209116813E+03   -0.56401E-02   -0.64289E-02  7616   0.964E-01    0.528E-01
DAV:   4    -0.216208232050E+03    0.88476E-03   -0.40296E-03  5528   0.701E-01    0.447E-01
DAV:   5    -0.216207678671E+03    0.55338E-03   -0.79896E-04  5472   0.353E-01    0.366E-01
DAV:   6    -0.216207660018E+03    0.18653E-04   -0.85820E-04  5784   0.216E-01    0.185E-01
DAV:   7    -0.216207679431E+03   -0.19413E-04   -0.47429E-04  6328   0.139E-01    0.602E-02
DAV:   8    -0.216207685098E+03   -0.56673E-05   -0.15526E-04  5152   0.631E-02    0.398E-02
DAV:   9    -0.216207689204E+03   -0.41057E-05   -0.14630E-05  3304   0.308E-02
  13 F= -.24453297E+03 E0= -.24451955E+03  d E =-.455421E-01
       N       E                     dE             d eps       ncg     rms          rms(c)
DAV:   1    -0.215797981137E+03    0.40970E+00   -0.12130E+01  6544   0.308E+01    0.189E+00
DAV:   2    -0.216213785530E+03   -0.41580E+00   -0.42673E+00  5064   0.376E+00    0.843E-01
DAV:   3    -0.216224586814E+03   -0.10801E-01   -0.12041E-01  7112   0.108E+00    0.641E-01
DAV:   4    -0.216223824193E+03    0.76262E-03   -0.77099E-03  5528   0.796E-01    0.581E-01
DAV:   5    -0.216222664227E+03    0.11600E-02   -0.11701E-03  5544   0.454E-01    0.480E-01
DAV:   6    -0.216222957578E+03   -0.29335E-03   -0.82269E-04  6152   0.232E-01    0.321E-01
DAV:   7    -0.216223231270E+03   -0.27369E-03   -0.88205E-04  5272   0.205E-01    0.870E-02
DAV:   8    -0.216223224765E+03    0.65048E-05   -0.35241E-04  6512   0.106E-01    0.442E-02
DAV:   9    -0.216223235074E+03   -0.10309E-04   -0.90806E-05  5064   0.311E-02    0.364E-02
DAV:  10    -0.216223236343E+03   -0.12694E-05   -0.22266E-05  3280   0.278E-02
  14 F= -.24454195E+03 E0= -.24452841E+03  d E =-.898871E-02
       N       E                     dE             d eps       ncg     rms          rms(c)
DAV:   1    -0.216218898129E+03    0.43369E-02   -0.15957E-01  6376   0.352E+00    0.203E-01
DAV:   2    -0.216224338949E+03   -0.54408E-02   -0.55701E-02  4856   0.431E-01    0.103E-01
DAV:   3    -0.216224474774E+03   -0.13583E-03   -0.14817E-03  5248   0.158E-01    0.764E-02
DAV:   4    -0.216224450154E+03    0.24620E-04   -0.13582E-04  5096   0.108E-01    0.667E-02
DAV:   5    -0.216224442001E+03    0.81528E-05   -0.18713E-05  3392   0.601E-02
  15 F= -.24454241E+03 E0= -.24452884E+03  d E =-.944148E-02
       N       E                     dE             d eps       ncg     rms          rms(c)
DAV:   1    -0.216204415784E+03    0.20034E-01   -0.63808E-01  6488   0.707E+00    0.393E-01
DAV:   2    -0.216226153051E+03   -0.21737E-01   -0.22221E-01  4896   0.853E-01    0.204E-01
DAV:   3    -0.216226606562E+03   -0.45351E-03   -0.57383E-03  5840   0.189E-01    0.140E-01
DAV:   4    -0.216226564708E+03    0.41854E-04   -0.34613E-04  5312   0.841E-02    0.126E-01
DAV:   5    -0.216226541417E+03    0.23291E-04   -0.32320E-05  3976   0.519E-02    0.993E-02
DAV:   6    -0.216226553752E+03   -0.12335E-04   -0.24381E-05  3272   0.598E-02    0.522E-02
DAV:   7    -0.216226557078E+03   -0.33262E-05   -0.62282E-05  4976   0.720E-02
  16 F= -.24454302E+03 E0= -.24452941E+03  d E =-.100498E-01
       N       E                     dE             d eps       ncg     rms          rms(c)
DAV:   1    -0.216109346203E+03    0.11721E+00   -0.25405E+00  7048   0.168E+01    0.103E+00
DAV:   2    -0.216222529948E+03   -0.11318E+00   -0.11605E+00  4976   0.190E+00    0.459E-01
DAV:   3    -0.216225217601E+03   -0.26877E-02   -0.30608E-02  6312   0.417E-01    0.316E-01
DAV:   4    -0.216224998021E+03    0.21958E-03   -0.12859E-03  5520   0.125E-01    0.276E-01
DAV:   5    -0.216224883344E+03    0.11468E-03   -0.73378E-05  5152   0.555E-02    0.240E-01
DAV:   6    -0.216224914540E+03   -0.31196E-04   -0.58006E-05  4864   0.779E-02    0.146E-01
DAV:   7    -0.216224949254E+03   -0.34714E-04   -0.16278E-04  6256   0.112E-01    0.344E-02
DAV:   8    -0.216224947877E+03    0.13767E-05   -0.79993E-05  5816   0.573E-02
  17 F= -.24454362E+03 E0= -.24453009E+03  d E =-.604257E-03
       N       E                     dE             d eps       ncg     rms          rms(c)
DAV:   1    -0.216209729604E+03    0.15220E-01   -0.31323E-01  6960   0.589E+00    0.349E-01
DAV:   2    -0.216223697484E+03   -0.13968E-01   -0.14301E-01  4832   0.671E-01    0.167E-01
DAV:   3    -0.216224022386E+03   -0.32490E-03   -0.37697E-03  5376   0.166E-01    0.113E-01
DAV:   4    -0.216224001420E+03    0.20965E-04   -0.16541E-04  5320   0.888E-02    0.100E-01
DAV:   5    -0.216223981968E+03    0.19452E-04   -0.20601E-05  3352   0.712E-02    0.830E-02
DAV:   6    -0.216223979468E+03    0.25006E-05   -0.89719E-06  3040   0.372E-02
  18 F= -.24454343E+03 E0= -.24452991E+03  d E =-.412749E-03
       N       E                     dE             d eps       ncg     rms          rms(c)
DAV:   1    -0.216119492224E+03    0.10449E+00   -0.22361E+00  7248   0.152E+01    0.930E-01
DAV:   2    -0.216217352984E+03   -0.97861E-01   -0.10027E+00  5104   0.165E+00    0.412E-01
DAV:   3    -0.216220296746E+03   -0.29438E-02   -0.29142E-02  7544   0.433E-01    0.302E-01
DAV:   4    -0.216220074726E+03    0.22202E-03   -0.24799E-03  5568   0.361E-01    0.288E-01
DAV:   5    -0.216219750230E+03    0.32450E-03   -0.22075E-04  5208   0.193E-01    0.246E-01
DAV:   6    -0.216219870158E+03   -0.11993E-03   -0.14394E-04  5136   0.716E-02    0.177E-01
DAV:   7    -0.216220041092E+03   -0.17093E-03   -0.11732E-04  5000   0.916E-02    0.622E-02
DAV:   8    -0.216220061046E+03   -0.19954E-04   -0.89280E-05  5128   0.357E-02    0.219E-02
DAV:   9    -0.216220061261E+03   -0.21583E-06   -0.14550E-05  3336   0.210E-02
  19 F= -.24454354E+03 E0= -.24453015E+03  d E =-.106414E-03
       N       E                     dE             d eps       ncg     rms          rms(c)
DAV:   1    -0.216019550854E+03    0.20051E+00   -0.42745E+00  7224   0.210E+01    0.131E+00
DAV:   2    -0.216208189947E+03   -0.18864E+00   -0.19326E+00  5096   0.229E+00    0.568E-01
DAV:   3    -0.216213727244E+03   -0.55373E-02   -0.57700E-02  6504   0.470E-01    0.410E-01
DAV:   4    -0.216213498167E+03    0.22908E-03   -0.43065E-03  5504   0.319E-01    0.382E-01
DAV:   5    -0.216213026437E+03    0.47173E-03   -0.28296E-04  5128   0.213E-01    0.345E-01
DAV:   6    -0.216213096856E+03   -0.70419E-04   -0.94434E-05  5872   0.907E-02    0.280E-01
DAV:   7    -0.216213425514E+03   -0.32866E-03   -0.25127E-04  5024   0.140E-01    0.991E-02
DAV:   8    -0.216213493897E+03   -0.68383E-04   -0.21801E-04  6512   0.692E-02    0.269E-02
DAV:   9    -0.216213500277E+03   -0.63803E-05   -0.58105E-05  4832   0.303E-02
  20 F= -.24454254E+03 E0= -.24452934E+03  d E =0.884694E-03
       N       E                     dE             d eps       ncg     rms          rms(c)
DAV:   1    -0.216157879866E+03    0.55614E-01   -0.11735E+00  7312   0.103E+01    0.658E-01
DAV:   2    -0.216208401587E+03   -0.50522E-01   -0.51784E-01  5016   0.110E+00    0.300E-01
DAV:   3    -0.216209901022E+03   -0.14994E-02   -0.15517E-02  6088   0.233E-01    0.206E-01
DAV:   4    -0.216209802348E+03    0.98674E-04   -0.11124E-03  5480   0.836E-02    0.189E-01
DAV:   5    -0.216209724302E+03    0.78046E-04   -0.33967E-05  4344   0.403E-02    0.161E-01
DAV:   6    -0.216209787171E+03   -0.62869E-04   -0.26659E-05  3336   0.473E-02    0.100E-01
DAV:   7    -0.216209844287E+03   -0.57116E-04   -0.90153E-05  5232   0.754E-02    0.200E-02
DAV:   8    -0.216209843548E+03    0.73947E-06   -0.34744E-05  4016   0.338E-02
  21 F= -.24454256E+03 E0= -.24452949E+03  d E =-.193087E-04
       N       E                     dE             d eps       ncg     rms          rms(c)
DAV:   1    -0.215719982731E+03    0.48986E+00   -0.10469E+01  7248   0.309E+01    0.217E+00
DAV:   2    -0.216183606371E+03   -0.46362E+00   -0.47539E+00  5184   0.334E+00    0.900E-01
DAV:   3    -0.216198263043E+03   -0.14657E-01   -0.15847E-01  6616   0.796E-01    0.687E-01
DAV:   4    -0.216197350500E+03    0.91254E-03   -0.11063E-02  5280   0.322E-01    0.622E-01
DAV:   5    -0.216196634018E+03    0.71648E-03   -0.45594E-04  5192   0.155E-01    0.557E-01
DAV:   6    -0.216196626029E+03    0.79891E-05   -0.96521E-05  5104   0.104E-01
  22 F= -.24454037E+03 E0= -.24452779E+03  d E =0.217630E-02
       N       E                     dE             d eps       ncg     rms          rms(c)
DAV:   1    -0.214190920087E+03    0.20057E+01   -0.41384E+01  7248   0.619E+01    0.473E+00
DAV:   2    -0.216108283443E+03   -0.19174E+01   -0.19615E+01  5280   0.688E+00    0.207E+00
DAV:   3    -0.216167823511E+03   -0.59540E-01   -0.72775E-01  6672   0.219E+00    0.174E+00
DAV:   4    -0.216165784524E+03    0.20390E-02   -0.48582E-02  5336   0.168E+00    0.154E+00
DAV:   5    -0.216160521352E+03    0.52632E-02   -0.67469E-03  5384   0.107E+00    0.139E+00
DAV:   6    -0.216160210625E+03    0.31073E-03   -0.23543E-03  5816   0.261E-01    0.121E+00
DAV:   7    -0.216160876700E+03   -0.66608E-03   -0.12325E-03  5376   0.280E-01    0.775E-01
DAV:   8    -0.216162623141E+03   -0.17464E-02   -0.23677E-03  6584   0.337E-01    0.227E-01
DAV:   9    -0.216162830268E+03   -0.20713E-03   -0.10789E-03  6432   0.182E-01    0.134E-01
DAV:  10    -0.216162851172E+03   -0.20904E-04   -0.22789E-04  5456   0.736E-02    0.113E-01
DAV:  11    -0.216162858002E+03   -0.68301E-05   -0.50443E-05  4392   0.405E-02
  23 F= -.24452861E+03 E0= -.24451689E+03  d E =0.139297E-01
       N       E                     dE             d eps       ncg     rms          rms(c)
DAV:   1    -0.214696453981E+03    0.14664E+01   -0.31440E+01  7096   0.542E+01    0.419E+00
DAV:   2    -0.216150457379E+03   -0.14540E+01   -0.14888E+01  5160   0.595E+00    0.162E+00
DAV:   3    -0.216201980617E+03   -0.51523E-01   -0.52058E-01  7552   0.239E+00    0.149E+00
DAV:   4    -0.216195893943E+03    0.60867E-02   -0.51019E-02  5480   0.199E+00    0.130E+00
DAV:   5    -0.216192064719E+03    0.38292E-02   -0.74964E-03  5432   0.894E-01    0.109E+00
DAV:   6    -0.216192085832E+03   -0.21113E-04   -0.36202E-03  5576   0.217E-01    0.972E-01
DAV:   7    -0.216193030385E+03   -0.94455E-03   -0.80254E-04  5256   0.284E-01    0.552E-01
DAV:   8    -0.216194270427E+03   -0.12400E-02   -0.20609E-03  5728   0.270E-01    0.144E-01
DAV:   9    -0.216194410472E+03   -0.14005E-03   -0.65125E-04  5912   0.970E-02    0.109E-01
DAV:  10    -0.216194404459E+03    0.60126E-05   -0.77086E-05  4792   0.514E-02
  24 F= -.24454097E+03 E0= -.24452833E+03  d E =0.157306E-02
       N       E                     dE             d eps       ncg     rms          rms(c)
DAV:   1    -0.216061543114E+03    0.13287E+00   -0.27756E+00  7408   0.168E+01    0.111E+00
DAV:   2    -0.216186381864E+03   -0.12484E+00   -0.12863E+00  4984   0.184E+00    0.462E-01
DAV:   3    -0.216190210153E+03   -0.38283E-02   -0.37004E-02  6696   0.509E-01    0.335E-01
DAV:   4    -0.216189943138E+03    0.26702E-03   -0.29703E-03  5472   0.413E-01    0.315E-01
DAV:   5    -0.216189570804E+03    0.37233E-03   -0.29629E-04  5168   0.249E-01    0.266E-01
DAV:   6    -0.216189662118E+03   -0.91314E-04   -0.17778E-04  6232   0.102E-01    0.203E-01
DAV:   7    -0.216189847419E+03   -0.18530E-03   -0.16347E-04  4968   0.102E-01    0.856E-02
DAV:   8    -0.216189897567E+03   -0.50148E-04   -0.13540E-04  5664   0.557E-02    0.266E-02
DAV:   9    -0.216189899397E+03   -0.18296E-05   -0.30972E-05  3816   0.246E-02
  25 F= -.24454140E+03 E0= -.24452909E+03  d E =-.426802E-03
       N       E                     dE             d eps       ncg     rms          rms(c)
DAV:   1    -0.216181499058E+03    0.83985E-02   -0.15325E-01  7296   0.395E+00    0.250E-01
DAV:   2    -0.216188364943E+03   -0.68659E-02   -0.70611E-02  4848   0.435E-01    0.115E-01
DAV:   3    -0.216188580404E+03   -0.21546E-03   -0.19470E-03  5472   0.163E-01    0.844E-02
DAV:   4    -0.216188543071E+03    0.37332E-04   -0.17270E-04  5208   0.130E-01    0.754E-02
DAV:   5    -0.216188525384E+03    0.17687E-04   -0.18912E-05  3488   0.611E-02    0.579E-02
DAV:   6    -0.216188536895E+03   -0.11511E-04   -0.28025E-05  3800   0.279E-02    0.318E-02
DAV:   7    -0.216188541627E+03   -0.47321E-05   -0.87275E-06  2904   0.236E-02
  26 F= -.24454120E+03 E0= -.24452893E+03  d E =-.226737E-03
       N       E                     dE             d eps       ncg     rms          rms(c)
DAV:   1    -0.216158971780E+03    0.29565E-01   -0.68128E-01  7104   0.859E+00    0.507E-01
DAV:   2    -0.216188530535E+03   -0.29559E-01   -0.30333E-01  4960   0.939E-01    0.228E-01
DAV:   3    -0.216189359410E+03   -0.82887E-03   -0.87800E-03  6016   0.241E-01    0.157E-01
DAV:   4    -0.216189299617E+03    0.59793E-04   -0.61229E-04  5232   0.123E-01    0.145E-01
DAV:   5    -0.216189254954E+03    0.44663E-04   -0.43904E-05  4680   0.791E-02    0.124E-01
DAV:   6    -0.216189255719E+03   -0.76531E-06   -0.11941E-05  3104   0.407E-02
  27 F= -.24454192E+03 E0= -.24452963E+03  d E =-.718853E-03
       N       E                     dE             d eps       ncg     rms          rms(c)
DAV:   1    -0.216071114289E+03    0.11814E+00   -0.26612E+00  7200   0.170E+01    0.999E-01
DAV:   2    -0.216186924880E+03   -0.11581E+00   -0.11867E+00  5064   0.185E+00    0.460E-01
DAV:   3    -0.216189822453E+03   -0.28976E-02   -0.30817E-02  6912   0.501E-01    0.335E-01
DAV:   4    -0.216189613950E+03    0.20850E-03   -0.22951E-03  5528   0.384E-01    0.311E-01
DAV:   5    -0.216189261696E+03    0.35225E-03   -0.23561E-04  5376   0.211E-01    0.263E-01
DAV:   6    -0.216189354050E+03   -0.92354E-04   -0.14725E-04  5832   0.847E-02    0.202E-01
DAV:   7    -0.216189513152E+03   -0.15910E-03   -0.17162E-04  4960   0.103E-01    0.628E-02
DAV:   8    -0.216189530478E+03   -0.17326E-04   -0.11783E-04  6336   0.516E-02    0.222E-02
DAV:   9    -0.216189532653E+03   -0.21746E-05   -0.22972E-05  3688   0.249E-02
  28 F= -.24454220E+03 E0= -.24452990E+03  d E =-.998528E-03
       N       E                     dE             d eps       ncg     rms          rms(c)
DAV:   1    -0.216187163915E+03    0.23666E-02   -0.55137E-02  7032   0.245E+00    0.153E-01
DAV:   2    -0.216189531605E+03   -0.23677E-02   -0.24355E-02  4864   0.268E-01    0.604E-02
DAV:   3    -0.216189601312E+03   -0.69707E-04   -0.73149E-04  5048   0.826E-02    0.425E-02
DAV:   4    -0.216189595123E+03    0.61896E-05   -0.53389E-05  3360   0.336E-02
  29 F= -.24454226E+03 E0= -.24452994E+03  d E =-.106114E-02
       N       E                     dE             d eps       ncg     rms          rms(c)
DAV:   1    -0.216174292562E+03    0.15309E-01   -0.32756E-01  7136   0.607E+00    0.379E-01
DAV:   2    -0.216188854100E+03   -0.14562E-01   -0.14990E-01  4864   0.677E-01    0.157E-01
DAV:   3    -0.216189302917E+03   -0.44882E-03   -0.42563E-03  5664   0.175E-01    0.107E-01
DAV:   4    -0.216189283650E+03    0.19267E-04   -0.24327E-04  5240   0.111E-01    0.972E-02
DAV:   5    -0.216189254917E+03    0.28733E-04   -0.23524E-05  3544   0.742E-02    0.811E-02
DAV:   6    -0.216189263578E+03   -0.86606E-05   -0.13730E-05  2960   0.456E-02
  30 F= -.24454250E+03 E0= -.24453022E+03  d E =-.238695E-03
