 vasp.6.5.1 10Mar25 (build Mar 31 2026 12:25:20) complex                         
 executed on              LinuxNV date 2026.04.01  08:00:56
 running    1 mpi-ranks, with    1 threads/rank, on    1 nodes
 distrk:  each k-point on    1 cores,    1 groups
 distr:  one band on NCORE=   1 cores,    1 groups
 Offloading initialized ...    1 GPUs detected


--------------------------------------------------------------------------------------------------------


 INCAR:
   SYSTEM = Cu-Au(111) 4x4 slab relaxation
   ENCUT = 400
   EDIFF = 1E-5
   ISMEAR = 1
   SIGMA = 0.1
   LREAL = Auto
   PREC = Normal
   ALGO = Normal
   NSW = 200
   IBRION = 2
   EDIFFG = -0.02
   ISIF = 2
   IVDW = 12
   ISPIN = 1
   LORBIT = 11
   NCORE = 4
   LWAVE = .TRUE.
   LCHARG = .TRUE.

 POTCAR:    PAW_PBE Ag 02Apr2005                  
 POTCAR:    PAW_PBE Cu_pv 06Sep2000               
 POTCAR:    PAW_PBE Ag 02Apr2005                  
   SHA256 =  6550cfa3543261e132c169e1b98a529204624d72be14e2da2e0242bcb74a174d Ag/POTCAR             
   COPYR  = (c) Copyright 02Apr2005 Georg Kresse                                                    
   COPYR  = This file is part of the software VASP. Any use, copying, and all other rights are regul
   COPYR  = If you do not have a valid VASP license, you may not use, copy or distribute this file. 
   VRHFIN =Ag : s1 d10                                                                              
   LEXCH  = PE                                                                                      
   EATOM  =  1037.2675 eV,   76.2370 Ry                                                             
                                                                                                    
   TITEL  = PAW_PBE Ag 02Apr2005                                                                    
   LULTRA =        F    use ultrasoft PP ?                                                          
   IUNSCR =        1    unscreen: 0-lin 1-nonlin 2-no                                               
   RPACOR =    2.000    partial core radius                                                         
   POMASS =  107.868; ZVAL   =   11.000    mass and valenz                                          
   RCORE  =    2.500    outmost cutoff radius                                                       
   RWIGS  =    2.840; RWIGS  =    1.503    wigner-seitz radius (au A)                               
   ENMAX  =  249.844; ENMIN  =  187.383 eV                                                          
   ICORE  =        3    local potential                                                             
   LCOR   =        T    correct aug charges                                                         
   LPAW   =        T    paw PP                                                                      
   EAUG   =  412.496                                                                                
   DEXC   =    0.000                                                                                
   RMAX   =    2.560    core radius for proj-oper                                                   
   RAUG   =    1.300    factor for augmentation sphere                                              
   RDEP   =    2.576    radius for radial grids                                                     
   RDEPT  =    2.072    core radius for aug-charge                                                  
                                                                                                    
   Atomic configuration                                                                             
   12 entries                                                                                       
     n  l   j            E        occ.                                                              
     1  0  0.50    -25324.9161   2.0000                                                             
     2  0  0.50     -3728.5341   2.0000                                                             
     2  1  1.50     -3344.0404   6.0000                                                             
     3  0  0.50      -683.5581   2.0000                                                             
     3  1  1.50      -557.3225   6.0000                                                             
     3  2  2.50      -358.3853  10.0000                                                             
     4  0  0.50       -95.0341   2.0000                                                             
     4  1  1.50       -58.5511   6.0000                                                             
     4  2  2.50        -7.4440  10.0000                                                             
     5  0  0.50        -4.4045   1.0000                                                             
     5  1  0.50        -1.3606   0.0000                                                             
     4  3  2.50        -1.3606   0.0000                                                             
   Description                                                                                      
     l       E           TYP  RCUT    TYP  RCUT                                                     
     2     -7.4439781     23  2.400                                                                 
     2     -8.8045607     23  2.400                                                                 
     0     -4.4044681     23  2.400                                                                 
     0      1.9520038     23  2.400                                                                 
     1     -1.3605826     23  2.500                                                                 
     1     27.2116520     23  2.500                                                                 
     3     -4.0817478     23  2.400                                                                 
  local pseudopotential read in
  partial core-charges read in
  partial kinetic energy density read in
  atomic valenz-charges read in
  non local Contribution for L=            2  read in
    real space projection operators read in
  non local Contribution for L=            2  read in
    real space projection operators read in
  non local Contribution for L=            0  read in
    real space projection operators read in
  non local Contribution for L=            0  read in
    real space projection operators read in
  non local Contribution for L=            1  read in
    real space projection operators read in
  non local Contribution for L=            1  read in
    real space projection operators read in
    PAW grid and wavefunctions read in
 
   number of l-projection  operators is LMAX  =            6
   number of lm-projection operators is LMMAX =           18
 
 POTCAR:    PAW_PBE Cu_pv 06Sep2000               
   SHA256 =  cb7b504e2ea725fe1f25c85a9ac77d4012ce94cd394135b722c4e25ec297f1cb Cu_pv/POTCAR          
   COPYR  = (c) Copyright 06Sep2000 Georg Kresse                                                    
   COPYR  = This file is part of the software VASP. Any use, copying, and all other rights are regul
   COPYR  = If you do not have a valid VASP license, you may not use, copy or distribute this file. 
   VRHFIN =Cu: d10 p1                                                                               
   LEXCH  = PE                                                                                      
   EATOM  =  4120.1201 eV,  302.8203 Ry                                                             
                                                                                                    
   TITEL  = PAW_PBE Cu_pv 06Sep2000                                                                 
   LULTRA =        F    use ultrasoft PP ?                                                          
   IUNSCR =        1    unscreen: 0-lin 1-nonlin 2-no                                               
   RPACOR =    1.500    partial core radius                                                         
   POMASS =   63.546; ZVAL   =   17.000    mass and valenz                                          
   RCORE  =    2.000    outmost cutoff radius                                                       
   RWIGS  =    2.000; RWIGS  =    1.058    wigner-seitz radius (au A)                               
   ENMAX  =  368.648; ENMIN  =  276.486 eV                                                          
   RCLOC  =    1.304    cutoff for local pot                                                        
   LCOR   =        T    correct aug charges                                                         
   LPAW   =        T    paw PP                                                                      
   EAUG   =  758.233                                                                                
   DEXC   =    0.000                                                                                
   RMAX   =    2.046    core radius for proj-oper                                                   
   RAUG   =    1.300    factor for augmentation sphere                                              
   RDEP   =    2.025    radius for radial grids                                                     
   RDEPT  =    1.558    core radius for aug-charge                                                  
                                                                                                    
   Atomic configuration                                                                             
    8 entries                                                                                       
     n  l   j            E        occ.                                                              
     1  0  0.50     -8850.2467   2.0000                                                             
     2  0  0.50     -1062.3498   2.0000                                                             
     2  1  1.50      -916.8226   6.0000                                                             
     3  0  0.50      -114.6929   2.0000                                                             
     3  1  1.50       -72.1325   6.0000                                                             
     3  2  2.50        -5.0394  10.0000                                                             
     4  0  0.50        -4.6097   1.0000                                                             
     4  3  2.50        -1.3606   0.0000                                                             
   Description                                                                                      
     l       E           TYP  RCUT    TYP  RCUT                                                     
     1    -72.1324777     23  1.700                                                                 
     1     -1.3605826     23  1.700                                                                 
     2     -5.0393776     23  2.000                                                                 
     2     -6.3999602     23  2.000                                                                 
     0     -4.6097062     23  1.800                                                                 
     0     14.1620818     23  1.800                                                                 
  local pseudopotential read in
  partial core-charges read in
  partial kinetic energy density read in
  atomic valenz-charges read in
  non local Contribution for L=            1  read in
    real space projection operators read in
  non local Contribution for L=            1  read in
    real space projection operators read in
  non local Contribution for L=            2  read in
    real space projection operators read in
  non local Contribution for L=            2  read in
    real space projection operators read in
  non local Contribution for L=            0  read in
    real space projection operators read in
  non local Contribution for L=            0  read in
    real space projection operators read in
    PAW grid and wavefunctions read in
 
   number of l-projection  operators is LMAX  =            6
   number of lm-projection operators is LMMAX =           18
 
 Optimization of the real space projectors (new method)

 maximal supplied QI-value         = 15.12
 optimisation between [QCUT,QGAM] = [ 10.13, 20.41] = [ 28.73,116.64] Ry 
 Optimized for a Real-space Cutoff    1.51 Angstroem

   l    n(q)    QCUT    max X(q) W(low)/X(q) W(high)/X(q)  e(spline) 
   2      8    10.129    53.897    0.29E-03    0.16E-03    0.95E-07
   2      8    10.129    52.416    0.29E-03    0.17E-03    0.97E-07
   0      9    10.129   122.045    0.59E-04    0.96E-05    0.73E-07
   0      9    10.129    73.629    0.57E-04    0.96E-05    0.70E-07
   1      9    10.129    15.255    0.14E-03    0.20E-04    0.11E-06
   1      9    10.129     9.562    0.11E-03    0.14E-04    0.94E-07
 Optimization of the real space projectors (new method)

 maximal supplied QI-value         = 18.90
 optimisation between [QCUT,QGAM] = [ 10.20, 20.41] = [ 29.16,116.64] Ry 
 Optimized for a Real-space Cutoff    1.26 Angstroem

   l    n(q)    QCUT    max X(q) W(low)/X(q) W(high)/X(q)  e(spline) 
   1      7    10.205     3.172    0.20E-03    0.15E-04    0.13E-06
   1      7    10.205     4.083    0.34E-03    0.11E-03    0.24E-06
   2      7    10.205    65.342    0.26E-03    0.63E-03    0.23E-06
   2      7    10.205    61.381    0.27E-03    0.64E-03    0.23E-06
   0      8    10.205    65.742    0.10E-03    0.19E-03    0.36E-07
   0      8    10.205    30.431    0.85E-04    0.16E-03    0.33E-07
  PAW_PBE Ag 02Apr2005                  :
 energy of atom  1       EATOM=-1037.2675
 kinetic energy error for atom=    0.0091 (will be added to EATOM!!)
  PAW_PBE Cu_pv 06Sep2000               :
 energy of atom  2       EATOM=-4120.1201
 kinetic energy error for atom=    0.0996 (will be added to EATOM!!)
 
 
 POSCAR: 50% Ag Cu(111) slab
  positions in direct lattice
  No initial velocities read in
 IVDW         = 12
 VDW_S6       =    1.0000
 VDW_S8       =    0.7875
 VDW_A1       =    0.4289
 VDW_A2       =    4.4407
 VDW_RADIUS   =   50.2022 A
 VDW_CNRADIUS =   21.1671 A


 exchange-correlation table for PE
   RHO(1)=    0.500       N(1)  =     2000
   RHO(2)=  100.500       N(2)  =     4000
 


--------------------------------------------------------------------------------------------------------


 ion  position               nearest neighbor table
   1  0.500  0.250  0.588-   3 2.57   4 2.57   7 2.65   8 2.65  26 2.66  25 2.66  15 2.70  18 2.71
                            19 2.71
   2  0.000  0.250  0.588-   3 2.57   4 2.57   5 2.65   6 2.65  24 2.66  27 2.66  17 2.70  23 2.71
                            31 2.71
   3  0.250  0.250  0.588-   1 2.57   2 2.57   6 2.65   7 2.65  25 2.66  24 2.66  16 2.70  19 2.71
                            23 2.71
   4  0.750  0.250  0.588-   1 2.57   2 2.57   5 2.65   8 2.65  27 2.66  26 2.66  14 2.70  31 2.71
                            18 2.71
   5  0.005  0.990  0.583-  29 2.49  28 2.49  21 2.52  20 2.52   6 2.57   8 2.57  31 2.59   4 2.65
                             2 2.65
   6  0.255  0.990  0.583-  63 2.49  29 2.49  30 2.52  21 2.52   5 2.57   7 2.57  23 2.59   3 2.65
                             2 2.65
   7  0.505  0.990  0.583-  64 2.49  63 2.49  22 2.52  30 2.52   6 2.57   8 2.57  19 2.59   3 2.65
                             1 2.65
   8  0.755  0.990  0.583-  28 2.49  64 2.49  20 2.52  22 2.52   5 2.57   7 2.57  18 2.59   4 2.65
                             1 2.65
   9  0.667  0.667  0.526-  27 2.49  33 2.49  59 2.49  60 2.49  63 2.52  64 2.52
  10  0.417  0.667  0.526-  26 2.49  62 2.49  58 2.49  59 2.49  29 2.52  63 2.52
  11  0.167  0.667  0.526-  25 2.49  61 2.49  57 2.49  58 2.49  28 2.52  29 2.52
  12  0.917  0.667  0.526-  24 2.49  32 2.49  60 2.49  57 2.49  64 2.52  28 2.52
  13  0.000  0.000  0.413-
  14  0.666  0.418  0.527-  59 2.49  55 2.50  56 2.50   4 2.70
  15  0.416  0.418  0.527-  58 2.49  54 2.50  55 2.50   1 2.70
  16  0.166  0.418  0.527-  57 2.49  53 2.50  54 2.50   3 2.70
  17  0.916  0.418  0.527-  60 2.49  56 2.50  53 2.50   2 2.70
  18  0.668  0.164  0.526-  51 2.48  52 2.48  55 2.50   8 2.59   1 2.71   4 2.71
  19  0.418  0.164  0.526-  50 2.48  51 2.48  54 2.50   7 2.59   3 2.71   1 2.71
  20  0.917  0.916  0.526-  32 2.49  61 2.49  52 2.50   8 2.52   5 2.52  28 2.52
  21  0.167  0.916  0.526-  61 2.49  62 2.49  49 2.50   5 2.52   6 2.52  29 2.52
  22  0.667  0.916  0.526-  33 2.49  32 2.49  51 2.50   7 2.52   8 2.52  64 2.52
  23  0.168  0.164  0.526-  49 2.48  50 2.48  53 2.50   6 2.59   2 2.71   3 2.71
  24  0.995  0.510  0.583-  12 2.49  64 2.49  28 2.49   2 2.66   3 2.66
  25  0.245  0.510  0.583-  11 2.49  28 2.49  29 2.49   3 2.66   1 2.66
  26  0.495  0.510  0.583-  10 2.49  29 2.49  63 2.49   1 2.66   4 2.66
  27  0.745  0.510  0.583-   9 2.49  63 2.49  64 2.49   4 2.66   2 2.66
  28  0.000  0.750  0.583-   8 2.49   5 2.49  25 2.49  24 2.49  20 2.52  11 2.52  12 2.52
  29  0.250  0.750  0.583-   5 2.49   6 2.49  26 2.49  25 2.49  21 2.52  10 2.52  11 2.52
  30  0.417  0.916  0.526-  62 2.49  33 2.49  50 2.50   6 2.52   7 2.52  63 2.52
  31  0.918  0.164  0.526-  52 2.48  49 2.48  56 2.50   5 2.59   4 2.71   2 2.71
  32  0.833  0.833  0.471-  20 2.49  22 2.49  12 2.49
  33  0.583  0.833  0.471-  22 2.49  30 2.49   9 2.49
  34  0.250  0.000  0.413-
  35  0.500  0.000  0.413-
  36  0.750  0.000  0.413-
  37  0.000  0.250  0.413-
  38  0.250  0.250  0.413-
  39  0.500  0.250  0.413-
  40  0.750  0.250  0.413-
  41  0.000  0.500  0.413-
  42  0.250  0.500  0.413-
  43  0.500  0.500  0.413-
  44  0.750  0.500  0.413-
  45  0.000  0.750  0.413-
  46  0.250  0.750  0.413-
  47  0.500  0.750  0.413-
  48  0.750  0.750  0.413-
  49  0.083  0.083  0.471-  23 2.48  31 2.48  21 2.50
  50  0.333  0.083  0.471-  19 2.48  23 2.48  30 2.50
  51  0.583  0.083  0.471-  18 2.48  19 2.48  22 2.50
  52  0.833  0.083  0.471-  31 2.48  18 2.48  20 2.50
  53  0.083  0.333  0.471-  23 2.50  16 2.50  17 2.50
  54  0.333  0.333  0.471-  19 2.50  15 2.50  16 2.50
  55  0.583  0.333  0.471-  18 2.50  14 2.50  15 2.50
  56  0.833  0.333  0.471-  31 2.50  17 2.50  14 2.50
  57  0.083  0.583  0.471-  16 2.49  11 2.49  12 2.49
  58  0.333  0.583  0.471-  15 2.49  10 2.49  11 2.49
  59  0.583  0.583  0.471-  14 2.49   9 2.49  10 2.49
  60  0.833  0.583  0.471-  17 2.49  12 2.49   9 2.49
  61  0.083  0.833  0.471-  21 2.49  20 2.49  11 2.49
  62  0.333  0.833  0.471-  30 2.49  21 2.49  10 2.49
  63  0.500  0.750  0.583-   6 2.49   7 2.49  27 2.49  26 2.49  30 2.52   9 2.52  10 2.52
  64  0.750  0.750  0.583-   7 2.49   8 2.49  24 2.49  27 2.49  22 2.52  12 2.52   9 2.52
 
  LATTYP: Found a hexagonal cell.
 ALAT       =    10.2813325985
 C/A-ratio  =     3.5302821242
  
  Lattice vectors:
  
 A1 = (  -5.1406662992,  -8.9038952150,   0.0000000000)
 A2 = (  10.2813325985,   0.0000000000,   0.0000000000)
 A3 = (   0.0000000000,   0.0000000000,  36.2960046855)


Analysis of symmetry for initial positions (statically):
=====================================================================
 Subroutine PRICEL returns following result:
 
  LATTYP: Found a simple orthorhombic cell.
 ALAT       =     2.5703331496
 B/A-ratio  =     3.4641016151
 C/A-ratio  =    14.1211284969
  
  Lattice vectors:
  
 A1 = (   2.5703331496,   0.0000000000,   0.0000000000)
 A2 = (   0.0000000000,   8.9038952150,   0.0000000000)
 A3 = (   0.0000000000,   0.0000000000,  36.2960046855)
 
   4 primitive cells build up your supercell.
 

 Routine SETGRP: Setting up the symmetry group for a 
 hexagonal supercell.


 Subroutine GETGRP returns: Found  2 space group operations
 (whereof  2 operations were pure point group operations)
 out of a pool of 24 trial point group operations.


The static configuration has the point symmetry C_1h.


Analysis of symmetry for dynamics (positions and initial velocities):
=====================================================================
 Subroutine PRICEL returns following result:
 
  LATTYP: Found a simple orthorhombic cell.
 ALAT       =     2.5703331496
 B/A-ratio  =     3.4641016151
 C/A-ratio  =    14.1211284969
  
  Lattice vectors:
  
 A1 = (   2.5703331496,   0.0000000000,   0.0000000000)
 A2 = (   0.0000000000,   8.9038952150,   0.0000000000)
 A3 = (   0.0000000000,   0.0000000000,  36.2960046855)
 
   4 primitive cells build up your supercell.
 

 Routine SETGRP: Setting up the symmetry group for a 
 hexagonal supercell.


 Subroutine GETGRP returns: Found  2 space group operations
 (whereof  2 operations were pure point group operations)
 out of a pool of 24 trial point group operations.


The dynamic configuration has the point symmetry C_1h.


Analysis of constrained symmetry for selective dynamics:
=====================================================================
 Subroutine PRICEL returns following result:
 
  LATTYP: Found a simple orthorhombic cell.
 ALAT       =     2.5703331496
 B/A-ratio  =     3.4641016151
 C/A-ratio  =    14.1211284969
  
  Lattice vectors:
  
 A1 = (   2.5703331496,   0.0000000000,   0.0000000000)
 A2 = (   0.0000000000,   8.9038952150,   0.0000000000)
 A3 = (   0.0000000000,   0.0000000000,  36.2960046855)
 
   4 primitive cells build up your supercell.
 

 Routine SETGRP: Setting up the symmetry group for a 
 hexagonal supercell.


 Subroutine GETGRP returns: Found  2 space group operations
 (whereof  2 operations were pure point group operations)
 out of a pool of 24 trial point group operations.


The constrained configuration has the point symmetry C_1h.


 Subroutine INISYM returns: Found  2 space group operations
 (whereof  2 operations are pure point group operations),
 and found     4 'primitive' translations


----------------------------------------------------------------------------------------

                                     Primitive cell                                     

  volume of cell :     830.6695

  direct lattice vectors                    reciprocal lattice vectors
     2.570333150  0.000000000  0.000000000     0.389054625 -0.000000000  0.000000000
     0.000000000  8.903895215  0.000000000     0.000000000  0.112310396  0.000000000
     0.000000000  0.000000000 36.296004686     0.000000000  0.000000000  0.027551242

  length of vectors
     2.570333150  8.903895215 36.296004686     0.389054625  0.112310396  0.027551242

  position of ions in fractional coordinates (direct lattice)
     0.500000000  0.249568214  0.588444282
     0.000000000  0.989687423  0.583029619
     1.000000000  0.666972847  0.526297680
     0.000000000  0.000000000  0.413268626
     0.500000000  0.418384184  0.526520432
     1.000000000  0.164482091  0.526043723
     0.500000000  0.915651284  0.526297888
     1.000000000  0.509844846  0.583098764
     0.500000000  0.749764957  0.582551711
     0.000000000  0.833333333  0.471089542
     0.500000000  0.250000000  0.413268626
     0.000000000  0.500000000  0.413268626
     0.500000000  0.750000000  0.413268626
     0.500000000  0.083333333  0.471089542
     0.000000000  0.333333333  0.471089542
     0.500000000  0.583333333  0.471089542

  ion indices of the primitive-cell ions
   primitive index   ion index
                 1           1
                 2           7
                 3          10
                 4          35
                 5          15
                 6          19
                 7          30
                 8          26
                 9          63
                10          33
                11          39
                12          43
                13          47
                14          51
                15          55
                16          59

----------------------------------------------------------------------------------------

 
 
 KPOINTS: Gamma-centered 3x3x1                    

Automatic generation of k-mesh.
 Grid dimensions read from file:
 generate k-points for:    3    3    1

 Generating k-lattice:

  Cartesian coordinates                     Fractional coordinates (reciprocal lattice)
     0.032421219 -0.018718399  0.000000000     0.333333333 -0.000000000  0.000000000
     0.000000000  0.037436799  0.000000000     0.000000000  0.333333333  0.000000000
     0.000000000  0.000000000  0.027551242     0.000000000  0.000000000  1.000000000

  Length of vectors
     0.037436799  0.037436799  0.027551242

  Shift w.r.t. Gamma in fractional coordinates (k-lattice)
     0.000000000  0.000000000  0.000000000

 
 Subroutine IBZKPT returns following result:
 ===========================================
 
 Found      4 irreducible k-points:
 
 Following reciprocal coordinates:
            Coordinates               Weight
  0.000000  0.000000  0.000000      1.000000
  0.333333  0.000000  0.000000      4.000000
  0.000000  0.333333  0.000000      2.000000
 -0.333333  0.333333  0.000000      2.000000
 
 Following cartesian coordinates:
            Coordinates               Weight
  0.000000  0.000000  0.000000      1.000000
  0.032421 -0.018718  0.000000      4.000000
  0.000000  0.037437  0.000000      2.000000
 -0.032421  0.056155  0.000000      2.000000
 


--------------------------------------------------------------------------------------------------------




 Dimension of arrays:
   k-points           NKPTS =      4   k-points in BZ     NKDIM =      4   number of bands    NBANDS=    624
   number of dos      NEDOS =    301   number of ions     NIONS =     64
   non local maximal  LDIM  =      6   non local SUM 2l+1 LMDIM =     18
   total plane-waves  NPLWV = 450000
   max r-space proj   IRMAX =   1997   max aug-charges    IRDMAX=   6858
   dimension x,y,z NGX =    50 NGY =   50 NGZ =  180
   dimension x,y,z NGXF=   100 NGYF=  100 NGZF=  360
   support grid    NGXF=   100 NGYF=  100 NGZF=  360
   ions per type =               8  56
   NGX,Y,Z   is equivalent  to a cutoff of   8.08,  8.08,  8.24 a.u.
   NGXF,Y,Z  is equivalent  to a cutoff of  16.17, 16.17, 16.49 a.u.

 SYSTEM =  Cu-Au(111) 4x4 slab relaxation          
 POSCAR =  50% Ag Cu(111) slab                     

 Startparameter for this run:
   NWRITE =      2    write-flag & timer
   PREC   = normal    normal or accurate (medium, high low for compatibility)
   ISTART =      0    job   : 0-new  1-cont  2-samecut
   ICHARG =      2    charge: 1-file 2-atom 10-const
   ISPIN  =      1    spin polarized calculation?
   LNONCOLLINEAR =      F non collinear calculations
   LSORBIT =      F    spin-orbit coupling
   INIWAV =      1    electr: 0-lowe 1-rand  2-diag
   LASPH  =      F    aspherical Exc in radial PAW
 Electronic Relaxation 1
   ENCUT  =  400.0 eV  29.40 Ry    5.42 a.u.  16.77 16.77 59.19*2*pi/ulx,y,z
   ENINI  =  400.0     initial cutoff
   ENAUG  =  758.2 eV  augmentation charge cutoff
   NELM   =     60;   NELMIN=  2; NELMDL= -5     # of ELM steps 
   EDIFF  = 0.1E-04   stopping-criterion for ELM
   LREAL  =      T    real-space projection
   NLSPLINE    = F    spline interpolate recip. space projectors
   LCOMPAT=      F    compatible to vasp.4.4
   GGA_COMPAT  = T    GGA compatible to vasp.4.4-vasp.4.6
   LMAXPAW     = -100 max onsite density
   LMAXMIX     =    2 max onsite mixed and CHGCAR
   VOSKOWN=      0    Vosko Wilk Nusair interpolation
   ROPT   =   -0.00050  -0.00050
 Ionic relaxation
   EDIFFG = -.2E-01   stopping-criterion for IOM
   NSW    =    200    number of steps for IOM
   NBLOCK =      1;   KBLOCK =    200    inner block; outer block 
   IBRION =      2    ionic relax: 0-MD 1-quasi-New 2-CG
   NFREE  =      1    steps in history (QN), initial steepest desc. (CG)
   ISIF   =      2    stress and relaxation
   IWAVPR =     11    prediction:  0-non 1-charg 2-wave 3-comb
   ISYM   =      2    0-nonsym 1-usesym 2-fastsym
   LCORR  =      T    Harris-Foulkes like correction to forces

   POTIM  = 0.5000    time-step for ionic-motion
   TEIN   =    0.0    initial temperature
   TEBEG  =    0.0;   TEEND  =   0.0 temperature during run
   SMASS  =  -3.00    Nose mass-parameter (am)
   estimated Nose-frequenzy (Omega)   =  0.10E-29 period in steps = 0.13E+47 mass=  -0.242E-26a.u.
   SCALEE = 1.0000    scale energy and forces
   NPACO  =    256;   APACO  = 10.0  distance and # of slots for P.C.
   PSTRESS=    0.0 pullay stress

  Mass of Ions in am
   POMASS = 107.87 63.55
  Ionic Valenz
   ZVAL   =  11.00 17.00
  Atomic Wigner-Seitz radii
   RWIGS  =  -1.00 -1.00
  virtual crystal weights 
   VCA    =   1.00  1.00
   NELECT =    1040.0000    total number of electrons
   NUPDOWN=      -1.0000    fix difference up-down

 DOS related values:
   EMIN   =  10.00;   EMAX   =-10.00  energy-range for DOS
   EFERMI =   0.00;   METHOD = LEGACY      
   ISMEAR =     1;   SIGMA  =   0.10  broadening in eV -4-tet -1-fermi 0-gaus
   EFERMI_NEDOS =   21; number of points for ismear=-14 and -15

 Electronic relaxation 2 (details)
   IALGO  =     38    algorithm
   LDIAG  =      T    sub-space diagonalisation (order eigenvalues)
   LSUBROT=      F    optimize rotation matrix (better conditioning)
   LROBUST=      F    robust break criterion during scf (extrapolated energy error)
   ISEARCH=      0    line search for conjugate gradient (0, 1=use gradient)
   TURBO    =      0    0=normal 1=particle mesh
   IRESTART =      0    0=no restart 2=restart with 2 vectors
   NREBOOT  =      0    no. of reboots
   NMIN     =      0    reboot dimension
   EREF     =   0.00    reference energy to select bands
   IMIX   =      4    mixing-type and parameters
     AMIX     =   0.40;   BMIX     =  1.00
     AMIX_MAG =   1.60;   BMIX_MAG =  1.00
     AMIN     =   0.10
     WC   =   100.;   INIMIX=   1;  MIXPRE=   1;  MAXMIX= -45

 Intra band minimization:
   WEIMIN = 0.0010     energy-eigenvalue tresh-hold
   EBREAK =  0.40E-08  absolut break condition
   DEPER  =   0.30     relativ break condition  

   TIME   =   0.40     timestep for ELM

  volume/ion in A,a.u.               =      51.92       350.35
  Fermi-wavevector in a.u.,A,eV,Ry     =   1.111535  2.100497 16.810138  1.235510
  Thomas-Fermi vector in A             =   2.248099
 
 Write flags
   LWAVE        =      T    write WAVECAR
   LDOWNSAMPLE  =      F    k-point downsampling of WAVECAR
   LCHARG       =      T    write CHGCAR
   LVTOT        =      F    write LOCPOT, total local potential
   LVHAR        =      F    write LOCPOT, Hartree potential only
   WRT_POTENTIAL= false  ! write potential to hdf5 file
   LELF         =      F    write electronic localiz. function (ELF)
   LORBIT       =     11    0 simple, 1 ext, 2 COOP (PROOUT), +10 PAW based schemes


 Python interface
   PLUGINS active      =      F    recompile with -DPLUGINS to activate
 
 Dipole corrections
   LMONO      =      F    monopole corrections only (constant potential shift)
   LDIPOL     =      F    correct potential (dipole corrections)
   IDIPOL     =      0    1-x, 2-y, 3-z, 4-all directions 
   EPSILON    =  1.0000000 bulk dielectric constant
   LVACPOTAV  =      F  vacuum potentials using an averaging scheme for the charge density
   VACPOTFLAT =  0.1000000 required flatness to determine vacuum potential
 
Coulomb truncation method
  LTRUNCATE          =      F  Coulomb kernel truncation to be used

 
 Exchange correlation treatment:
   GGA     = PE    functional components
   XC_C    = 1    coefficients multiplying the functional components
   LIBXC   =     F    Libxc                    
   VOSKOWN =     0    Vosko Wilk Nusair interpolation
   LHFCALC =     F    Hartree Fock is set to
   LHFONE  =     F    Hartree Fock one center treatment
   AEXX    =    0.0000 exact exchange contribution

 Parameters of functionals:
   PE:
     No parameter
 
 Van der Waals corrections
   IVDW    =    12    specifies the selected vdW correction

 Linear response parameters
   LEPSILON=     F    determine dielectric tensor
   LRPA    =     F    only Hartree local field effects (RPA)
   LNABLA  =     F    use nabla operator in PAW spheres
   LVEL    =     F    velocity operator in full k-point grid
   CSHIFT  =0.1000    complex shift for real part using Kramers Kronig
   OMEGAMAX=  -1.0    maximum frequency
   DEG_THRESHOLD= 0.2000000E-02 threshold for treating states as degnerate
   RTIME   =   -0.100 relaxation time in fs
  (WPLASMAI=    0.000 imaginary part of plasma frequency in eV, 0.658/RTIME)
   DFIELD  = 0.0000000 0.0000000 0.0000000 field for delta impulse in time
 
  Optional k-point grid parameters
   LKPOINTS_OPT  =     F    use optional k-point grid
   KPOINTS_OPT_MODE=     1    mode for optional k-point grid
 
 Orbital magnetization related:
   ORBITALMAG=     F  switch on orbital magnetization
   LCHIMAG   =     F  perturbation theory with respect to B field
   DQ        =  0.001000  dq finite difference perturbation B field
   LLRAUG    =     F  two centre corrections for induced B field
   LBONE     =     F  B-component reconstruction in AE one-centre
   LVGVCALC  =     T  calculate vGv susceptibility
   LVGVAPPL  =     F  apply vGv susceptibility instead of pGv for G=0

 Random number generation:
   RANDOM_GENERATOR = DEFAULT
   PCG_SEED         = not used


--------------------------------------------------------------------------------------------------------


 conjugate gradient relaxation of ions
   using selective dynamics as specified on POSCAR
 charge density and potential will be updated during run
 non-spin polarized calculation
 Variant of blocked Davidson
 Davidson routine will perform the subspace rotation
 perform sub-space diagonalisation
    after iterative eigenvector-optimisation
 modified Broyden-mixing scheme, WC =      100.0
 initial mixing is a Kerker type mixing with AMIX =  0.4000 and BMIX =      1.0000
 Hartree-type preconditioning will be used
 using additional bands           104
 real space projection scheme for non local part
 use partial core corrections
 calculate Harris-corrections to forces 
   (improved forces if not selfconsistent)
 use gradient corrections 
 use of overlap-Matrix (Vanderbilt PP)
 Methfessel and Paxton  Order N= 1 SIGMA  =   0.10


--------------------------------------------------------------------------------------------------------


  energy-cutoff  :      400.00
  volume of cell :     3322.68
      direct lattice vectors                 reciprocal lattice vectors
    10.281332598  0.000000000  0.000000000     0.097263656 -0.056155198  0.000000000
     5.140666299  8.903895215  0.000000000     0.000000000  0.112310396  0.000000000
     0.000000000  0.000000000 36.296004686     0.000000000  0.000000000  0.027551242

  length of vectors
    10.281332598 10.281332598 36.296004686     0.112310396  0.112310396  0.027551242


 
 k-points in units of 2pi/SCALE and weight: Gamma-centered 3x3x1                    
   0.00000000  0.00000000  0.00000000       0.111
   0.03242122 -0.01871840  0.00000000       0.444
   0.00000000  0.03743680  0.00000000       0.222
  -0.03242122  0.05615520  0.00000000       0.222
 
 k-points in reciprocal lattice and weights: Gamma-centered 3x3x1                    
   0.00000000  0.00000000  0.00000000       0.111
   0.33333333  0.00000000  0.00000000       0.444
   0.00000000  0.33333333  0.00000000       0.222
  -0.33333333  0.33333333  0.00000000       0.222
 
 position of ions in fractional coordinates (direct lattice) 
   0.50021589  0.24956821  0.58844428
   0.00021589  0.24956821  0.58844428
   0.25021589  0.24956821  0.58844428
   0.75021589  0.24956821  0.58844428
   0.00515629  0.98968742  0.58302962
   0.25515629  0.98968742  0.58302962
   0.50515629  0.98968742  0.58302962
   0.75515629  0.98968742  0.58302962
   0.66651358  0.66697285  0.52629768
   0.41651358  0.66697285  0.52629768
   0.16651358  0.66697285  0.52629768
   0.91651358  0.66697285  0.52629768
   0.00000000  0.00000000  0.41326863
   0.66580791  0.41838418  0.52652043
   0.41580791  0.41838418  0.52652043
   0.16580791  0.41838418  0.52652043
   0.91580791  0.41838418  0.52652043
   0.66775895  0.16448209  0.52604372
   0.41775895  0.16448209  0.52604372
   0.91717436  0.91565128  0.52629789
   0.16717436  0.91565128  0.52629789
   0.66717436  0.91565128  0.52629789
   0.16775895  0.16448209  0.52604372
   0.99507758  0.50984485  0.58309876
   0.24507758  0.50984485  0.58309876
   0.49507758  0.50984485  0.58309876
   0.74507758  0.50984485  0.58309876
   0.00011752  0.74976496  0.58255171
   0.25011752  0.74976496  0.58255171
   0.41717436  0.91565128  0.52629789
   0.91775895  0.16448209  0.52604372
   0.83333333  0.83333333  0.47108954
   0.58333333  0.83333333  0.47108954
   0.25000000  0.00000000  0.41326863
   0.50000000  0.00000000  0.41326863
   0.75000000  0.00000000  0.41326863
   0.00000000  0.25000000  0.41326863
   0.25000000  0.25000000  0.41326863
   0.50000000  0.25000000  0.41326863
   0.75000000  0.25000000  0.41326863
   0.00000000  0.50000000  0.41326863
   0.25000000  0.50000000  0.41326863
   0.50000000  0.50000000  0.41326863
   0.75000000  0.50000000  0.41326863
   0.00000000  0.75000000  0.41326863
   0.25000000  0.75000000  0.41326863
   0.50000000  0.75000000  0.41326863
   0.75000000  0.75000000  0.41326863
   0.08333333  0.08333333  0.47108954
   0.33333333  0.08333333  0.47108954
   0.58333333  0.08333333  0.47108954
   0.83333333  0.08333333  0.47108954
   0.08333333  0.33333333  0.47108954
   0.33333333  0.33333333  0.47108954
   0.58333333  0.33333333  0.47108954
   0.83333333  0.33333333  0.47108954
   0.08333333  0.58333333  0.47108954
   0.33333333  0.58333333  0.47108954
   0.58333333  0.58333333  0.47108954
   0.83333333  0.58333333  0.47108954
   0.08333333  0.83333333  0.47108954
   0.33333333  0.83333333  0.47108954
   0.50011752  0.74976496  0.58255171
   0.75011752  0.74976496  0.58255171
 
 position of ions in cartesian coordinates  (Angst):
   6.42583287  2.22212922 21.35817643
   1.28516657  2.22212922 21.35817643
   3.85549972  2.22212922 21.35817643
   8.99616602  2.22212922 21.35817643
   5.14066630  8.81207311 21.16164578
   7.71099945  8.81207311 21.16164578
  10.28133260  8.81207311 21.16164578
  12.85166575  8.81207311 21.16164578
  10.28133260  5.93865634 19.10250305
   7.71099945  5.93865634 19.10250305
   5.14066630  5.93865634 19.10250305
  12.85166575  5.93865634 19.10250305
   0.00000000  0.00000000 15.00000000
   8.99616602  3.72524894 19.11058808
   6.42583287  3.72524894 19.11058808
   3.85549972  3.72524894 19.11058808
  11.56649917  3.72524894 19.11058808
   7.71099945  1.46453130 19.09328542
   5.14066630  1.46453130 19.09328542
  14.13683232  8.15286309 19.10251061
   6.42583287  8.15286309 19.10251061
  11.56649917  8.15286309 19.10251061
   2.57033315  1.46453130 19.09328542
  12.85166575  4.53960509 21.16415548
   5.14066630  4.53960509 21.16415548
   7.71099945  4.53960509 21.16415548
  10.28133260  4.53960509 21.16415548
   3.85549972  6.67582861 21.14429963
   6.42583287  6.67582861 21.14429963
   8.99616602  8.15286309 19.10251061
  10.28133260  1.46453130 19.09328542
  12.85166575  7.41991268 17.09866823
  10.28133260  7.41991268 17.09866823
   2.57033315  0.00000000 15.00000000
   5.14066630  0.00000000 15.00000000
   7.71099945  0.00000000 15.00000000
   1.28516657  2.22597380 15.00000000
   3.85549972  2.22597380 15.00000000
   6.42583287  2.22597380 15.00000000
   8.99616602  2.22597380 15.00000000
   2.57033315  4.45194761 15.00000000
   5.14066630  4.45194761 15.00000000
   7.71099945  4.45194761 15.00000000
  10.28133260  4.45194761 15.00000000
   3.85549972  6.67792141 15.00000000
   6.42583287  6.67792141 15.00000000
   8.99616602  6.67792141 15.00000000
  11.56649917  6.67792141 15.00000000
   1.28516657  0.74199127 17.09866823
   3.85549972  0.74199127 17.09866823
   6.42583287  0.74199127 17.09866823
   8.99616602  0.74199127 17.09866823
   2.57033315  2.96796507 17.09866823
   5.14066630  2.96796507 17.09866823
   7.71099945  2.96796507 17.09866823
  10.28133260  2.96796507 17.09866823
   3.85549972  5.19393888 17.09866823
   6.42583287  5.19393888 17.09866823
   8.99616602  5.19393888 17.09866823
  11.56649917  5.19393888 17.09866823
   5.14066630  7.41991268 17.09866823
   7.71099945  7.41991268 17.09866823
   8.99616602  6.67582861 21.14429963
  11.56649917  6.67582861 21.14429963
 


--------------------------------------------------------------------------------------------------------


 k-point     1 :   0.0000 0.0000 0.0000  plane waves:   60263
 k-point     2 :   0.3333 0.0000 0.0000  plane waves:   60381
 k-point     3 :   0.0000 0.3333 0.0000  plane waves:   60381
 k-point     4 :  -0.3333 0.3333 0.0000  plane waves:   60237

 maximum and minimum number of plane-waves per node :     60381    60237

 maximum number of plane-waves:     60381
 maximum index in each direction: 
   IXMAX=   17   IYMAX=   16   IZMAX=   59
   IXMIN=  -17   IYMIN=  -17   IZMIN=  -59


 serial   3D FFT for wavefunctions
 parallel 3D FFT for charge:
    minimum data exchange during FFTs selected (reduces bandwidth)


 total amount of memory used by VASP MPI-rank0  2846305. kBytes
=======================================================================

   base                                    :      30000. kBytes
   nonlr-proj                              :      14369. kBytes
   fftplans                                :     123120. kBytes
   grid                                    :     220440. kBytes
   one-center                              :        995. kBytes
   wavefun                                 :    2457381. kBytes
 
     INWAV:  cpu time      0.0001: real time      0.0001
 Broyden mixing: mesh for mixing (old mesh)
   NGX = 33   NGY = 33   NGZ =119
  (NGX  =100   NGY  =100   NGZ  =360)
  gives a total of 129591 points

 initial charge density was supplied:
 charge density of overlapping atoms calculated
 number of electron    1040.0000000 magnetization 
 keeping initial charge density in first step


--------------------------------------------------------------------------------------------------------


 Maximum index for non-local projection operator          1898
 Maximum index for augmentation-charges          6466 (set IRDMAX)


--------------------------------------------------------------------------------------------------------


 First call to EWALD:  gamma=   0.119
 Maximum number of real-space cells   4x   4x   1
 Maximum number of reciprocal cells   2x   2x   6

    FEWALD:  cpu time      0.1851: real time      0.1857


--------------------------------------- Ionic step        1  -------------------------------------------




--------------------------------------- Iteration      1(   1)  ---------------------------------------


    POTLOK:  cpu time      0.0343: real time      0.0344
    SETDIJ:  cpu time      0.0580: real time      0.0583
     EDDAV:  cpu time      5.0305: real time      5.1487
       DOS:  cpu time      0.0014: real time      0.0014
    --------------------------------------------
      LOOP:  cpu time      5.1243: real time      5.2428

 eigenvalue-minimisations  :  6312
 total energy-change (2. order) : 0.8168698E+04  (-0.6512926E+05)
 number of electron    1040.0000000 magnetization 
 augmentation part     1040.0000000 magnetization 

 Free energy of the ion-electron system (eV)
  ---------------------------------------------------
  alpha Z        PSCENC =      2059.33923444
  Ewald energy   TEWEN  =   1836093.97610723
  -Hartree energ DENC   =  -2048907.68636594
  -exchange      EXHF   =         0.00000000
  -V(xc)+E(xc)   XCENC  =      5977.42388103
  PAW double counting   =    202900.77683861  -210901.15514589
  entropy T*S    EENTRO =        -0.00729729
  eigenvalues    EBANDS =    -18073.18397845
  atomic energy  EATOM  =    239019.21427345
  Solvation  Ediel_sol  =         0.00000000
  ---------------------------------------------------
  free energy    TOTEN  =      8168.69754721 eV

  energy without entropy =     8168.70484449  energy(sigma->0) =     8168.69997963


--------------------------------------------------------------------------------------------------------




--------------------------------------- Iteration      1(   2)  ---------------------------------------


     EDDAV:  cpu time      4.2059: real time      4.2234
       DOS:  cpu time      0.0016: real time      0.0016
    --------------------------------------------
      LOOP:  cpu time      4.2075: real time      4.2250

 eigenvalue-minimisations  :  5352
 total energy-change (2. order) :-0.8087595E+04  (-0.7911870E+04)
 number of electron    1040.0000000 magnetization 
 augmentation part     1040.0000000 magnetization 

 Free energy of the ion-electron system (eV)
  ---------------------------------------------------
  alpha Z        PSCENC =      2059.33923444
  Ewald energy   TEWEN  =   1836093.97610723
  -Hartree energ DENC   =  -2048907.68636594
  -exchange      EXHF   =         0.00000000
  -V(xc)+E(xc)   XCENC  =      5977.42388103
  PAW double counting   =    202900.77683861  -210901.15514589
  entropy T*S    EENTRO =        -0.01949976
  eigenvalues    EBANDS =    -26160.76681520
  atomic energy  EATOM  =    239019.21427345
  Solvation  Ediel_sol  =         0.00000000
  ---------------------------------------------------
  free energy    TOTEN  =        81.10250798 eV

  energy without entropy =       81.12200773  energy(sigma->0) =       81.10900790


--------------------------------------------------------------------------------------------------------




--------------------------------------- Iteration      1(   3)  ---------------------------------------


     EDDAV:  cpu time      4.2972: real time      4.3165
       DOS:  cpu time      0.0018: real time      0.0018
    --------------------------------------------
      LOOP:  cpu time      4.2990: real time      4.3182

 eigenvalue-minimisations  :  5512
 total energy-change (2. order) :-0.3358456E+03  (-0.3300675E+03)
 number of electron    1040.0000000 magnetization 
 augmentation part     1040.0000000 magnetization 

 Free energy of the ion-electron system (eV)
  ---------------------------------------------------
  alpha Z        PSCENC =      2059.33923444
  Ewald energy   TEWEN  =   1836093.97610723
  -Hartree energ DENC   =  -2048907.68636594
  -exchange      EXHF   =         0.00000000
  -V(xc)+E(xc)   XCENC  =      5977.42388103
  PAW double counting   =    202900.77683861  -210901.15514589
  entropy T*S    EENTRO =        -0.04895574
  eigenvalues    EBANDS =    -26496.58297600
  atomic energy  EATOM  =    239019.21427345
  Solvation  Ediel_sol  =         0.00000000
  ---------------------------------------------------
  free energy    TOTEN  =      -254.74310880 eV

  energy without entropy =     -254.69415306  energy(sigma->0) =     -254.72679022


--------------------------------------------------------------------------------------------------------




--------------------------------------- Iteration      1(   4)  ---------------------------------------


     EDDAV:  cpu time      4.1792: real time      4.1963
       DOS:  cpu time      0.0017: real time      0.0017
    --------------------------------------------
      LOOP:  cpu time      4.1809: real time      4.1981

 eigenvalue-minimisations  :  5304
 total energy-change (2. order) :-0.5867599E+01  (-0.5856609E+01)
 number of electron    1040.0000000 magnetization 
 augmentation part     1040.0000000 magnetization 

 Free energy of the ion-electron system (eV)
  ---------------------------------------------------
  alpha Z        PSCENC =      2059.33923444
  Ewald energy   TEWEN  =   1836093.97610723
  -Hartree energ DENC   =  -2048907.68636594
  -exchange      EXHF   =         0.00000000
  -V(xc)+E(xc)   XCENC  =      5977.42388103
  PAW double counting   =    202900.77683861  -210901.15514589
  entropy T*S    EENTRO =        -0.04721939
  eigenvalues    EBANDS =    -26502.45231144
  atomic energy  EATOM  =    239019.21427345
  Solvation  Ediel_sol  =         0.00000000
  ---------------------------------------------------
  free energy    TOTEN  =      -260.61070789 eV

  energy without entropy =     -260.56348850  energy(sigma->0) =     -260.59496809


--------------------------------------------------------------------------------------------------------




--------------------------------------- Iteration      1(   5)  ---------------------------------------


     EDDAV:  cpu time      4.9291: real time      4.9490
       DOS:  cpu time      0.0019: real time      0.0019
    CHARGE:  cpu time      0.5463: real time      0.5481
    MIXING:  cpu time      0.0628: real time      0.0629
    --------------------------------------------
      LOOP:  cpu time      5.5400: real time      5.5619

 eigenvalue-minimisations  :  6560
 total energy-change (2. order) :-0.2436252E+00  (-0.2435946E+00)
 number of electron    1039.9998453 magnetization 
 augmentation part      622.3009496 magnetization 

 Broyden mixing:
  rms(total) = 0.68382E+01    rms(broyden)= 0.68370E+01
  rms(prec ) = 0.69487E+01
  weight for this iteration     100.00

 Free energy of the ion-electron system (eV)
  ---------------------------------------------------
  alpha Z        PSCENC =      2059.33923444
  Ewald energy   TEWEN  =   1836093.97610723
  -Hartree energ DENC   =  -2048907.68636594
  -exchange      EXHF   =         0.00000000
  -V(xc)+E(xc)   XCENC  =      5977.42388103
  PAW double counting   =    202900.77683861  -210901.15514589
  entropy T*S    EENTRO =        -0.04720607
  eigenvalues    EBANDS =    -26502.69594998
  atomic energy  EATOM  =    239019.21427345
  Solvation  Ediel_sol  =         0.00000000
  ---------------------------------------------------
  free energy    TOTEN  =      -260.85433311 eV

  energy without entropy =     -260.80712704  energy(sigma->0) =     -260.83859775


--------------------------------------------------------------------------------------------------------




--------------------------------------- Iteration      1(   6)  ---------------------------------------


    POTLOK:  cpu time      0.0266: real time      0.0285
    SETDIJ:  cpu time      0.0590: real time      0.0592
     EDDAV:  cpu time      4.2695: real time      4.2873
       DOS:  cpu time      0.0016: real time      0.0015
    CHARGE:  cpu time      0.5045: real time      0.5064
    MIXING:  cpu time      0.0679: real time      0.0717
    --------------------------------------------
      LOOP:  cpu time      4.9290: real time      4.9546

 eigenvalue-minimisations  :  5408
 total energy-change (2. order) : 0.1578964E+02  (-0.5874469E+02)
 number of electron    1039.9998239 magnetization 
 augmentation part      668.0489137 magnetization 

 Broyden mixing:
  rms(total) = 0.78324E+01    rms(broyden)= 0.78320E+01
  rms(prec ) = 0.78945E+01
  weight for this iteration     100.00

 eigenvalues of (default mixing * dielectric matrix)
  average eigenvalue GAMMA=   0.4329
  0.4329

 Free energy of the ion-electron system (eV)
  ---------------------------------------------------
  alpha Z        PSCENC =      2059.33923444
  Ewald energy   TEWEN  =   1836093.97610723
  -Hartree energ DENC   =  -2045697.26101878
  -exchange      EXHF   =         0.00000000
  -V(xc)+E(xc)   XCENC  =      5865.98676581
  PAW double counting   =    201370.59632594  -209182.40976062
  entropy T*S    EENTRO =         0.00525979
  eigenvalues    EBANDS =    -29774.51187834
  atomic energy  EATOM  =    239019.21427345
  Solvation  Ediel_sol  =         0.00000000
  ---------------------------------------------------
  free energy    TOTEN  =      -245.06469108 eV

  energy without entropy =     -245.06995086  energy(sigma->0) =     -245.06644434


--------------------------------------------------------------------------------------------------------




--------------------------------------- Iteration      1(   7)  ---------------------------------------


    POTLOK:  cpu time      0.0455: real time      0.0461
    SETDIJ:  cpu time      0.0588: real time      0.0590
     EDDAV:  cpu time      4.4154: real time      4.4326
       DOS:  cpu time      0.0016: real time      0.0016
    CHARGE:  cpu time      0.4732: real time      0.4748
    MIXING:  cpu time      0.0660: real time      0.0663
    --------------------------------------------
      LOOP:  cpu time      5.0606: real time      5.0804

 eigenvalue-minimisations  :  5688
 total energy-change (2. order) : 0.2760907E+02  (-0.7191084E+01)
 number of electron    1039.9998270 magnetization 
 augmentation part      656.4110142 magnetization 

 Broyden mixing:
  rms(total) = 0.34079E+01    rms(broyden)= 0.34079E+01
  rms(prec ) = 0.34351E+01
  weight for this iteration     100.00

 eigenvalues of (default mixing * dielectric matrix)
  average eigenvalue GAMMA=   0.8448
  1.0379  0.6517

 Free energy of the ion-electron system (eV)
  ---------------------------------------------------
  alpha Z        PSCENC =      2059.33923444
  Ewald energy   TEWEN  =   1836093.97610723
  -Hartree energ DENC   =  -2046904.31828410
  -exchange      EXHF   =         0.00000000
  -V(xc)+E(xc)   XCENC  =      5896.42467509
  PAW double counting   =    205119.98252835  -213133.41957268
  entropy T*S    EENTRO =         0.02349228
  eigenvalues    EBANDS =    -28368.67807961
  atomic energy  EATOM  =    239019.21427345
  Solvation  Ediel_sol  =         0.00000000
  ---------------------------------------------------
  free energy    TOTEN  =      -217.45562555 eV

  energy without entropy =     -217.47911782  energy(sigma->0) =     -217.46345630


--------------------------------------------------------------------------------------------------------




--------------------------------------- Iteration      1(   8)  ---------------------------------------


    POTLOK:  cpu time      0.0237: real time      0.0255
    SETDIJ:  cpu time      0.0582: real time      0.0584
     EDDAV:  cpu time      4.5155: real time      4.5321
       DOS:  cpu time      0.0016: real time      0.0016
    CHARGE:  cpu time      0.4687: real time      0.4704
    MIXING:  cpu time      0.0650: real time      0.0653
    --------------------------------------------
      LOOP:  cpu time      5.1328: real time      5.1534

 eigenvalue-minimisations  :  5856
 total energy-change (2. order) :-0.1454839E+02  (-0.3112873E+01)
 number of electron    1039.9998341 magnetization 
 augmentation part      647.8463593 magnetization 

 Broyden mixing:
  rms(total) = 0.39528E+01    rms(broyden)= 0.39510E+01
  rms(prec ) = 0.44547E+01
  weight for this iteration     100.00

 eigenvalues of (default mixing * dielectric matrix)
  average eigenvalue GAMMA=   0.7976
  1.4904  0.5890  0.3134

 Free energy of the ion-electron system (eV)
  ---------------------------------------------------
  alpha Z        PSCENC =      2059.33923444
  Ewald energy   TEWEN  =   1836093.97610723
  -Hartree energ DENC   =  -2047454.07313387
  -exchange      EXHF   =         0.00000000
  -V(xc)+E(xc)   XCENC  =      5908.79843017
  PAW double counting   =    208400.53078712  -216581.34670303
  entropy T*S    EENTRO =         0.00138996
  eigenvalues    EBANDS =    -27678.44440264
  atomic energy  EATOM  =    239019.21427345
  Solvation  Ediel_sol  =         0.00000000
  ---------------------------------------------------
  free energy    TOTEN  =      -232.00401716 eV

  energy without entropy =     -232.00540713  energy(sigma->0) =     -232.00448048


--------------------------------------------------------------------------------------------------------




--------------------------------------- Iteration      1(   9)  ---------------------------------------


    POTLOK:  cpu time      0.0246: real time      0.0253
    SETDIJ:  cpu time      0.0584: real time      0.0586
     EDDAV:  cpu time      4.4564: real time      4.4734
       DOS:  cpu time      0.0017: real time      0.0017
    CHARGE:  cpu time      0.4607: real time      0.4623
    MIXING:  cpu time      0.0669: real time      0.0671
    --------------------------------------------
      LOOP:  cpu time      5.0685: real time      5.0884

 eigenvalue-minimisations  :  5768
 total energy-change (2. order) : 0.1398573E+02  (-0.3349196E+01)
 number of electron    1039.9998297 magnetization 
 augmentation part      648.0354383 magnetization 

 Broyden mixing:
  rms(total) = 0.14958E+01    rms(broyden)= 0.14920E+01
  rms(prec ) = 0.16463E+01
  weight for this iteration     100.00

 eigenvalues of (default mixing * dielectric matrix)
  average eigenvalue GAMMA=   0.8888
  2.0210  0.6513  0.6513  0.2319

 Free energy of the ion-electron system (eV)
  ---------------------------------------------------
  alpha Z        PSCENC =      2059.33923444
  Ewald energy   TEWEN  =   1836093.97610723
  -Hartree energ DENC   =  -2047501.56947971
  -exchange      EXHF   =         0.00000000
  -V(xc)+E(xc)   XCENC  =      5907.70252060
  PAW double counting   =    209436.86831307  -217679.23211611
  entropy T*S    EENTRO =        -0.02247770
  eigenvalues    EBANDS =    -27554.29466230
  atomic energy  EATOM  =    239019.21427345
  Solvation  Ediel_sol  =         0.00000000
  ---------------------------------------------------
  free energy    TOTEN  =      -218.01828703 eV

  energy without entropy =     -217.99580933  energy(sigma->0) =     -218.01079446


--------------------------------------------------------------------------------------------------------




--------------------------------------- Iteration      1(  10)  ---------------------------------------


    POTLOK:  cpu time      0.0194: real time      0.0209
    SETDIJ:  cpu time      0.0579: real time      0.0581
     EDDAV:  cpu time      4.5763: real time      4.5936
       DOS:  cpu time      0.0016: real time      0.0016
    CHARGE:  cpu time      0.4710: real time      0.4727
    MIXING:  cpu time      0.0714: real time      0.0716
    --------------------------------------------
      LOOP:  cpu time      5.1976: real time      5.2184

 eigenvalue-minimisations  :  5984
 total energy-change (2. order) : 0.2782642E+01  (-0.7760479E+00)
 number of electron    1039.9998316 magnetization 
 augmentation part      649.2202962 magnetization 

 Broyden mixing:
  rms(total) = 0.64845E+00    rms(broyden)= 0.64813E+00
  rms(prec ) = 0.68420E+00
  weight for this iteration     100.00

 eigenvalues of (default mixing * dielectric matrix)
  average eigenvalue GAMMA=   0.8241
  2.0199  0.6571  0.6571  0.5448  0.2414

 Free energy of the ion-electron system (eV)
  ---------------------------------------------------
  alpha Z        PSCENC =      2059.33923444
  Ewald energy   TEWEN  =   1836093.97610723
  -Hartree energ DENC   =  -2047230.55485341
  -exchange      EXHF   =         0.00000000
  -V(xc)+E(xc)   XCENC  =      5902.14166221
  PAW double counting   =    210224.01533031  -218511.92676984
  entropy T*S    EENTRO =         0.00585195
  eigenvalues    EBANDS =    -27771.44648136
  atomic energy  EATOM  =    239019.21427345
  Solvation  Ediel_sol  =         0.00000000
  ---------------------------------------------------
  free energy    TOTEN  =      -215.23564502 eV

  energy without entropy =     -215.24149696  energy(sigma->0) =     -215.23759566


--------------------------------------------------------------------------------------------------------




--------------------------------------- Iteration      1(  11)  ---------------------------------------


    POTLOK:  cpu time      0.0195: real time      0.0198
    SETDIJ:  cpu time      0.0584: real time      0.0586
     EDDAV:  cpu time      4.4204: real time      4.4369
       DOS:  cpu time      0.0017: real time      0.0017
    CHARGE:  cpu time      0.4696: real time      0.4714
    MIXING:  cpu time      0.0694: real time      0.0697
    --------------------------------------------
      LOOP:  cpu time      5.0391: real time      5.0581

 eigenvalue-minimisations  :  5720
 total energy-change (2. order) : 0.1773930E+00  (-0.3216006E+00)
 number of electron    1039.9998323 magnetization 
 augmentation part      649.0962580 magnetization 

 Broyden mixing:
  rms(total) = 0.44691E+00    rms(broyden)= 0.44687E+00
  rms(prec ) = 0.46984E+00
  weight for this iteration     100.00

 eigenvalues of (default mixing * dielectric matrix)
  average eigenvalue GAMMA=   0.7545
  2.0334  0.6905  0.6905  0.5330  0.2373  0.3422

 Free energy of the ion-electron system (eV)
  ---------------------------------------------------
  alpha Z        PSCENC =      2059.33923444
  Ewald energy   TEWEN  =   1836093.97610723
  -Hartree energ DENC   =  -2047287.00340849
  -exchange      EXHF   =         0.00000000
  -V(xc)+E(xc)   XCENC  =      5901.44216029
  PAW double counting   =    210237.07224306  -218525.20027380
  entropy T*S    EENTRO =        -0.00986095
  eigenvalues    EBANDS =    -27713.88872726
  atomic energy  EATOM  =    239019.21427345
  Solvation  Ediel_sol  =         0.00000000
  ---------------------------------------------------
  free energy    TOTEN  =      -215.05825203 eV

  energy without entropy =     -215.04839108  energy(sigma->0) =     -215.05496505


--------------------------------------------------------------------------------------------------------




--------------------------------------- Iteration      1(  12)  ---------------------------------------


    POTLOK:  cpu time      0.0260: real time      0.0268
    SETDIJ:  cpu time      0.0582: real time      0.0584
     EDDAV:  cpu time      4.5839: real time      4.6023
       DOS:  cpu time      0.0016: real time      0.0016
    CHARGE:  cpu time      0.4650: real time      0.4666
    MIXING:  cpu time      0.0728: real time      0.0731
    --------------------------------------------
      LOOP:  cpu time      5.2075: real time      5.2288

 eigenvalue-minimisations  :  5968
 total energy-change (2. order) : 0.1089982E+00  (-0.4928554E-01)
 number of electron    1039.9998324 magnetization 
 augmentation part      649.2797425 magnetization 

 Broyden mixing:
  rms(total) = 0.31463E+00    rms(broyden)= 0.31461E+00
  rms(prec ) = 0.31919E+00
  weight for this iteration     100.00

 eigenvalues of (default mixing * dielectric matrix)
  average eigenvalue GAMMA=   0.8799
  2.1247  1.0480  1.0480  0.6536  0.6536  0.2381  0.3933

 Free energy of the ion-electron system (eV)
  ---------------------------------------------------
  alpha Z        PSCENC =      2059.33923444
  Ewald energy   TEWEN  =   1836093.97610723
  -Hartree energ DENC   =  -2047298.07874318
  -exchange      EXHF   =         0.00000000
  -V(xc)+E(xc)   XCENC  =      5900.97235760
  PAW double counting   =    210289.85735565  -218576.61266387
  entropy T*S    EENTRO =        -0.00768124
  eigenvalues    EBANDS =    -27703.60949393
  atomic energy  EATOM  =    239019.21427345
  Solvation  Ediel_sol  =         0.00000000
  ---------------------------------------------------
  free energy    TOTEN  =      -214.94925384 eV

  energy without entropy =     -214.94157260  energy(sigma->0) =     -214.94669343


--------------------------------------------------------------------------------------------------------




--------------------------------------- Iteration      1(  13)  ---------------------------------------


    POTLOK:  cpu time      0.0198: real time      0.0201
    SETDIJ:  cpu time      0.0599: real time      0.0602
     EDDAV:  cpu time      4.9774: real time      4.9992
       DOS:  cpu time      0.0018: real time      0.0018
    CHARGE:  cpu time      0.4896: real time      0.4918
    MIXING:  cpu time      0.0800: real time      0.0803
    --------------------------------------------
      LOOP:  cpu time      5.6287: real time      5.6533

 eigenvalue-minimisations  :  6600
 total energy-change (2. order) : 0.1870877E-01  (-0.2082817E-01)
 number of electron    1039.9998309 magnetization 
 augmentation part      649.5929433 magnetization 

 Broyden mixing:
  rms(total) = 0.25118E+00    rms(broyden)= 0.25115E+00
  rms(prec ) = 0.25912E+00
  weight for this iteration     100.00

 eigenvalues of (default mixing * dielectric matrix)
  average eigenvalue GAMMA=   0.8952
  2.1486  1.2884  1.2884  0.6773  0.6773  0.2383  0.4216  0.4216

 Free energy of the ion-electron system (eV)
  ---------------------------------------------------
  alpha Z        PSCENC =      2059.33923444
  Ewald energy   TEWEN  =   1836093.97610723
  -Hartree energ DENC   =  -2047319.25215818
  -exchange      EXHF   =         0.00000000
  -V(xc)+E(xc)   XCENC  =      5900.24632953
  PAW double counting   =    210429.20230989  -218712.50671833
  entropy T*S    EENTRO =         0.00077716
  eigenvalues    EBANDS =    -27685.15070026
  atomic energy  EATOM  =    239019.21427345
  Solvation  Ediel_sol  =         0.00000000
  ---------------------------------------------------
  free energy    TOTEN  =      -214.93054506 eV

  energy without entropy =     -214.93132222  energy(sigma->0) =     -214.93080412


--------------------------------------------------------------------------------------------------------




--------------------------------------- Iteration      1(  14)  ---------------------------------------


    POTLOK:  cpu time      0.0215: real time      0.0219
    SETDIJ:  cpu time      0.0630: real time      0.0631
     EDDAV:  cpu time      4.2416: real time      4.2598
       DOS:  cpu time      0.0017: real time      0.0017
    CHARGE:  cpu time      0.4780: real time      0.4800
    MIXING:  cpu time      0.0785: real time      0.0789
    --------------------------------------------
      LOOP:  cpu time      4.8843: real time      4.9055

 eigenvalue-minimisations  :  5360
 total energy-change (2. order) :-0.4188473E-02  (-0.3596720E-01)
 number of electron    1039.9998318 magnetization 
 augmentation part      649.6231653 magnetization 

 Broyden mixing:
  rms(total) = 0.14255E+00    rms(broyden)= 0.14254E+00
  rms(prec ) = 0.14693E+00
  weight for this iteration     100.00

 eigenvalues of (default mixing * dielectric matrix)
  average eigenvalue GAMMA=   0.9099
  2.3047  1.3369  1.3369  0.7636  0.7636  0.6144  0.2385  0.4154  0.4154

 Free energy of the ion-electron system (eV)
  ---------------------------------------------------
  alpha Z        PSCENC =      2059.33923444
  Ewald energy   TEWEN  =   1836093.97610723
  -Hartree energ DENC   =  -2047351.57009065
  -exchange      EXHF   =         0.00000000
  -V(xc)+E(xc)   XCENC  =      5900.11817144
  PAW double counting   =    210498.79495296  -218780.88599925
  entropy T*S    EENTRO =        -0.00969180
  eigenvalues    EBANDS =    -27653.91169137
  atomic energy  EATOM  =    239019.21427345
  Solvation  Ediel_sol  =         0.00000000
  ---------------------------------------------------
  free energy    TOTEN  =      -214.93473354 eV

  energy without entropy =     -214.92504174  energy(sigma->0) =     -214.93150294


--------------------------------------------------------------------------------------------------------




--------------------------------------- Iteration      1(  15)  ---------------------------------------


    POTLOK:  cpu time      0.0199: real time      0.0201
    SETDIJ:  cpu time      0.0597: real time      0.0599
     EDDAV:  cpu time      4.2346: real time      4.2530
       DOS:  cpu time      0.0017: real time      0.0017
    CHARGE:  cpu time      0.4674: real time      0.4692
    MIXING:  cpu time      0.0771: real time      0.0774
    --------------------------------------------
      LOOP:  cpu time      4.8604: real time      4.8814

 eigenvalue-minimisations  :  5376
 total energy-change (2. order) : 0.4664618E-02  (-0.7463486E-02)
 number of electron    1039.9998305 magnetization 
 augmentation part      649.7968854 magnetization 

 Broyden mixing:
  rms(total) = 0.11544E+00    rms(broyden)= 0.11543E+00
  rms(prec ) = 0.13125E+00
  weight for this iteration     100.00

 eigenvalues of (default mixing * dielectric matrix)
  average eigenvalue GAMMA=   0.9032
  2.5427  1.2232  1.2232  1.0652  0.7003  0.7003  0.2384  0.4931  0.4931  0.3528

 Free energy of the ion-electron system (eV)
  ---------------------------------------------------
  alpha Z        PSCENC =      2059.33923444
  Ewald energy   TEWEN  =   1836093.97610723
  -Hartree energ DENC   =  -2047379.96925157
  -exchange      EXHF   =         0.00000000
  -V(xc)+E(xc)   XCENC  =      5899.55758087
  PAW double counting   =    210582.60637971  -218863.86840422
  entropy T*S    EENTRO =        -0.01154363
  eigenvalues    EBANDS =    -27625.77444521
  atomic energy  EATOM  =    239019.21427345
  Solvation  Ediel_sol  =         0.00000000
  ---------------------------------------------------
  free energy    TOTEN  =      -214.93006892 eV

  energy without entropy =     -214.91852529  energy(sigma->0) =     -214.92622104


--------------------------------------------------------------------------------------------------------




--------------------------------------- Iteration      1(  16)  ---------------------------------------


    POTLOK:  cpu time      0.0195: real time      0.0198
    SETDIJ:  cpu time      0.0587: real time      0.0589
     EDDAV:  cpu time      4.2673: real time      4.2827
       DOS:  cpu time      0.0017: real time      0.0017
    CHARGE:  cpu time      0.4877: real time      0.4897
    MIXING:  cpu time      0.0844: real time      0.0848
    --------------------------------------------
      LOOP:  cpu time      4.9194: real time      4.9375

 eigenvalue-minimisations  :  5424
 total energy-change (2. order) : 0.1590125E-01  (-0.3706742E-02)
 number of electron    1039.9998315 magnetization 
 augmentation part      649.9056411 magnetization 

 Broyden mixing:
  rms(total) = 0.54708E-01    rms(broyden)= 0.54687E-01
  rms(prec ) = 0.55743E-01
  weight for this iteration     100.00

 eigenvalues of (default mixing * dielectric matrix)
  average eigenvalue GAMMA=   0.9312
  2.5409  1.8414  1.1028  1.1028  0.7783  0.7783  0.5514  0.5514  0.2384  0.3789
  0.3789

 Free energy of the ion-electron system (eV)
  ---------------------------------------------------
  alpha Z        PSCENC =      2059.33923444
  Ewald energy   TEWEN  =   1836093.97610723
  -Hartree energ DENC   =  -2047391.65582730
  -exchange      EXHF   =         0.00000000
  -V(xc)+E(xc)   XCENC  =      5899.30898670
  PAW double counting   =    210620.46659893  -218902.45289210
  entropy T*S    EENTRO =        -0.01409485
  eigenvalues    EBANDS =    -27613.09655417
  atomic energy  EATOM  =    239019.21427345
  Solvation  Ediel_sol  =         0.00000000
  ---------------------------------------------------
  free energy    TOTEN  =      -214.91416767 eV

  energy without entropy =     -214.90007282  energy(sigma->0) =     -214.90946939


--------------------------------------------------------------------------------------------------------




--------------------------------------- Iteration      1(  17)  ---------------------------------------


    POTLOK:  cpu time      0.0250: real time      0.0253
    SETDIJ:  cpu time      0.0602: real time      0.0604
     EDDAV:  cpu time      4.8658: real time      4.8870
       DOS:  cpu time      0.0017: real time      0.0017
    CHARGE:  cpu time      0.4881: real time      0.4900
    MIXING:  cpu time      0.0923: real time      0.0928
    --------------------------------------------
      LOOP:  cpu time      5.5331: real time      5.5571

 eigenvalue-minimisations  :  6432
 total energy-change (2. order) : 0.2925142E-03  (-0.1377606E-02)
 number of electron    1039.9998311 magnetization 
 augmentation part      649.9185868 magnetization 

 Broyden mixing:
  rms(total) = 0.37326E-01    rms(broyden)= 0.37319E-01
  rms(prec ) = 0.38646E-01
  weight for this iteration     100.00

 eigenvalues of (default mixing * dielectric matrix)
  average eigenvalue GAMMA=   0.9388
  2.6524  2.2248  1.1612  1.1612  0.7550  0.7550  0.5723  0.5723  0.2384  0.4138
  0.4138  0.3454

 Free energy of the ion-electron system (eV)
  ---------------------------------------------------
  alpha Z        PSCENC =      2059.33923444
  Ewald energy   TEWEN  =   1836093.97610723
  -Hartree energ DENC   =  -2047409.52637724
  -exchange      EXHF   =         0.00000000
  -V(xc)+E(xc)   XCENC  =      5899.48789730
  PAW double counting   =    210607.16698207  -218887.83778568
  entropy T*S    EENTRO =        -0.01166383
  eigenvalues    EBANDS =    -27596.72254291
  atomic energy  EATOM  =    239019.21427345
  Solvation  Ediel_sol  =         0.00000000
  ---------------------------------------------------
  free energy    TOTEN  =      -214.91387516 eV

  energy without entropy =     -214.90221133  energy(sigma->0) =     -214.90998722


--------------------------------------------------------------------------------------------------------




--------------------------------------- Iteration      1(  18)  ---------------------------------------


    POTLOK:  cpu time      0.0252: real time      0.0255
    SETDIJ:  cpu time      0.0601: real time      0.0603
     EDDAV:  cpu time      4.1813: real time      4.1986
       DOS:  cpu time      0.0017: real time      0.0017
    CHARGE:  cpu time      0.4732: real time      0.4754
    MIXING:  cpu time      0.0938: real time      0.0942
    --------------------------------------------
      LOOP:  cpu time      4.8352: real time      4.8557

 eigenvalue-minimisations  :  5296
 total energy-change (2. order) :-0.1049584E-03  (-0.5246553E-03)
 number of electron    1039.9998312 magnetization 
 augmentation part      649.8814216 magnetization 

 Broyden mixing:
  rms(total) = 0.27404E-01    rms(broyden)= 0.27402E-01
  rms(prec ) = 0.28872E-01
  weight for this iteration     100.00

 eigenvalues of (default mixing * dielectric matrix)
  average eigenvalue GAMMA=   0.9657
  2.8429  2.3425  1.2416  1.2416  0.8097  0.8097  0.7024  0.5947  0.5947  0.2384
  0.3719  0.3819  0.3819

 Free energy of the ion-electron system (eV)
  ---------------------------------------------------
  alpha Z        PSCENC =      2059.33923444
  Ewald energy   TEWEN  =   1836093.97610723
  -Hartree energ DENC   =  -2047427.85155959
  -exchange      EXHF   =         0.00000000
  -V(xc)+E(xc)   XCENC  =      5899.63064800
  PAW double counting   =    210597.88598692  -218878.40472647
  entropy T*S    EENTRO =        -0.01336341
  eigenvalues    EBANDS =    -27578.69058070
  atomic energy  EATOM  =    239019.21427345
  Solvation  Ediel_sol  =         0.00000000
  ---------------------------------------------------
  free energy    TOTEN  =      -214.91398012 eV

  energy without entropy =     -214.90061671  energy(sigma->0) =     -214.90952565


--------------------------------------------------------------------------------------------------------




--------------------------------------- Iteration      1(  19)  ---------------------------------------


    POTLOK:  cpu time      0.0215: real time      0.0218
    SETDIJ:  cpu time      0.0598: real time      0.0600
     EDDAV:  cpu time      4.1135: real time      4.1296
       DOS:  cpu time      0.0017: real time      0.0017
    CHARGE:  cpu time      0.4752: real time      0.4768
    MIXING:  cpu time      0.0938: real time      0.0942
    --------------------------------------------
      LOOP:  cpu time      4.7655: real time      4.7839

 eigenvalue-minimisations  :  5192
 total energy-change (2. order) :-0.4621830E-03  (-0.2060493E-03)
 number of electron    1039.9998311 magnetization 
 augmentation part      649.8365057 magnetization 

 Broyden mixing:
  rms(total) = 0.21722E-01    rms(broyden)= 0.21720E-01
  rms(prec ) = 0.22397E-01
  weight for this iteration     100.00

 eigenvalues of (default mixing * dielectric matrix)
  average eigenvalue GAMMA=   0.9566
  3.0216  1.9760  1.2768  1.2768  0.8881  0.8881  0.7765  0.7765  0.6164  0.2384
  0.5258  0.3872  0.3872  0.3563

 Free energy of the ion-electron system (eV)
  ---------------------------------------------------
  alpha Z        PSCENC =      2059.33923444
  Ewald energy   TEWEN  =   1836093.97610723
  -Hartree energ DENC   =  -2047448.29760759
  -exchange      EXHF   =         0.00000000
  -V(xc)+E(xc)   XCENC  =      5899.75726116
  PAW double counting   =    210596.88335209  -218878.06414690
  entropy T*S    EENTRO =        -0.01408170
  eigenvalues    EBANDS =    -27557.70883449
  atomic energy  EATOM  =    239019.21427345
  Solvation  Ediel_sol  =         0.00000000
  ---------------------------------------------------
  free energy    TOTEN  =      -214.91444230 eV

  energy without entropy =     -214.90036060  energy(sigma->0) =     -214.90974840


--------------------------------------------------------------------------------------------------------




--------------------------------------- Iteration      1(  20)  ---------------------------------------


    POTLOK:  cpu time      0.0191: real time      0.0193
    SETDIJ:  cpu time      0.0602: real time      0.0604
     EDDAV:  cpu time      4.2509: real time      4.2666
       DOS:  cpu time      0.0017: real time      0.0016
    CHARGE:  cpu time      0.4689: real time      0.4706
    MIXING:  cpu time      0.0974: real time      0.0978
    --------------------------------------------
      LOOP:  cpu time      4.8981: real time      4.9163

 eigenvalue-minimisations  :  5440
 total energy-change (2. order) :-0.5787697E-03  (-0.9281623E-04)
 number of electron    1039.9998313 magnetization 
 augmentation part      649.8454812 magnetization 

 Broyden mixing:
  rms(total) = 0.10626E-01    rms(broyden)= 0.10625E-01
  rms(prec ) = 0.11613E-01
  weight for this iteration     100.00

 eigenvalues of (default mixing * dielectric matrix)
  average eigenvalue GAMMA=   0.9572
  2.5856  1.9681  1.9681  1.0530  1.0530  0.9236  0.9236  0.8897  0.5919  0.5919
  0.2384  0.4186  0.4186  0.3897  0.3442

 Free energy of the ion-electron system (eV)
  ---------------------------------------------------
  alpha Z        PSCENC =      2059.33923444
  Ewald energy   TEWEN  =   1836093.97610723
  -Hartree energ DENC   =  -2047450.55886512
  -exchange      EXHF   =         0.00000000
  -V(xc)+E(xc)   XCENC  =      5899.70080050
  PAW double counting   =    210599.77138598  -218881.70014838
  entropy T*S    EENTRO =        -0.01420052
  eigenvalues    EBANDS =    -27554.64360865
  atomic energy  EATOM  =    239019.21427345
  Solvation  Ediel_sol  =         0.00000000
  ---------------------------------------------------
  free energy    TOTEN  =      -214.91502107 eV

  energy without entropy =     -214.90082055  energy(sigma->0) =     -214.91028756


--------------------------------------------------------------------------------------------------------




--------------------------------------- Iteration      1(  21)  ---------------------------------------


    POTLOK:  cpu time      0.0246: real time      0.0514
    SETDIJ:  cpu time      0.0580: real time      0.0582
     EDDAV:  cpu time      4.7326: real time      4.7499
       DOS:  cpu time      0.0017: real time      0.0017
    CHARGE:  cpu time      0.4712: real time      0.4731
    MIXING:  cpu time      0.1016: real time      0.1020
    --------------------------------------------
      LOOP:  cpu time      5.3896: real time      5.4362

 eigenvalue-minimisations  :  6256
 total energy-change (2. order) :-0.9402111E-03  (-0.3610577E-04)
 number of electron    1039.9998313 magnetization 
 augmentation part      649.8453795 magnetization 

 Broyden mixing:
  rms(total) = 0.70857E-02    rms(broyden)= 0.70842E-02
  rms(prec ) = 0.75020E-02
  weight for this iteration     100.00

 eigenvalues of (default mixing * dielectric matrix)
  average eigenvalue GAMMA=   0.9702
  2.5252  2.5252  2.0272  1.1072  1.1072  0.9294  0.9294  0.6821  0.6821  0.6008
  0.6008  0.2384  0.4478  0.3807  0.3807  0.3584

 Free energy of the ion-electron system (eV)
[...]
   0.658E-03 0.334E+03 -.697E+04   -.926E-11 -.333E+03 0.697E+04   0.000E+00 -.762E+00 0.167E+01   0.494E-06 0.384E-02 -.764E-02
   0.658E-03 0.334E+03 -.697E+04   -.926E-11 -.333E+03 0.697E+04   0.694E-17 -.762E+00 0.167E+01   0.494E-06 0.384E-02 -.764E-02
   0.658E-03 0.334E+03 -.697E+04   -.936E-11 -.333E+03 0.697E+04   -.694E-17 -.762E+00 0.167E+01   0.494E-06 0.384E-02 -.764E-02
   0.658E-03 0.334E+03 -.697E+04   -.935E-11 -.333E+03 0.697E+04   0.139E-16 -.762E+00 0.167E+01   0.494E-06 0.384E-02 -.764E-02
   -.254E-03 -.335E+03 -.698E+04   0.142E-11 0.335E+03 0.698E+04   0.000E+00 0.691E+00 0.167E+01   -.650E-06 0.127E-01 -.972E-02
   -.254E-03 -.335E+03 -.698E+04   0.133E-11 0.335E+03 0.698E+04   0.694E-17 0.691E+00 0.167E+01   -.650E-06 0.127E-01 -.972E-02
   -.254E-03 -.335E+03 -.698E+04   0.132E-11 0.335E+03 0.698E+04   0.000E+00 0.691E+00 0.167E+01   -.650E-06 0.127E-01 -.972E-02
   -.254E-03 -.335E+03 -.698E+04   0.129E-11 0.335E+03 0.698E+04   -.694E-17 0.691E+00 0.167E+01   -.650E-06 0.127E-01 -.972E-02
   -.113E-03 -.106E+03 -.376E+04   0.114E-10 0.107E+03 0.376E+04   0.867E-17 -.175E+00 0.117E+01   -.605E-04 0.296E-01 -.286E-01
   -.113E-03 -.106E+03 -.376E+04   0.112E-10 0.107E+03 0.376E+04   -.347E-17 -.175E+00 0.117E+01   -.605E-04 0.296E-01 -.286E-01
   -.113E-03 -.106E+03 -.376E+04   0.112E-10 0.107E+03 0.376E+04   0.867E-17 -.175E+00 0.117E+01   -.605E-04 0.296E-01 -.286E-01
   -.113E-03 -.106E+03 -.376E+04   0.110E-10 0.107E+03 0.376E+04   -.520E-17 -.175E+00 0.117E+01   -.605E-04 0.296E-01 -.286E-01
   -.200E-04 -.231E+02 0.100E+05   0.725E-11 0.231E+02 -.999E+04   -.781E-17 0.362E-01 -.341E+01   0.244E-06 -.369E-02 -.325E-01
   0.223E-03 0.451E+03 -.416E+04   -.139E-10 -.451E+03 0.416E+04   -.173E-16 -.144E+00 0.228E+01   -.339E-04 -.788E-03 -.131E+00
   0.223E-03 0.451E+03 -.416E+04   -.139E-10 -.451E+03 0.416E+04   0.173E-17 -.144E+00 0.228E+01   -.339E-04 -.788E-03 -.131E+00
   0.223E-03 0.451E+03 -.416E+04   -.139E-10 -.451E+03 0.416E+04   0.000E+00 -.144E+00 0.228E+01   -.339E-04 -.788E-03 -.131E+00
   0.223E-03 0.451E+03 -.416E+04   -.139E-10 -.451E+03 0.416E+04   0.000E+00 -.144E+00 0.228E+01   -.339E-04 -.788E-03 -.131E+00
   0.273E-03 0.901E+02 -.475E+04   0.241E-10 -.903E+02 0.475E+04   0.347E-17 0.181E+00 0.408E+01   0.246E-04 -.289E-01 -.687E-01
   0.273E-03 0.901E+02 -.475E+04   0.240E-10 -.903E+02 0.475E+04   0.173E-17 0.181E+00 0.408E+01   0.246E-04 -.289E-01 -.687E-01
   0.200E-06 -.438E+03 -.442E+04   -.122E-11 0.437E+03 0.441E+04   0.000E+00 0.136E+00 0.309E+01   0.737E-04 -.908E-01 -.632E-01
   0.200E-06 -.438E+03 -.442E+04   -.120E-11 0.437E+03 0.441E+04   -.520E-17 0.136E+00 0.309E+01   0.737E-04 -.908E-01 -.632E-01
   0.200E-06 -.438E+03 -.442E+04   -.142E-11 0.437E+03 0.441E+04   -.867E-17 0.136E+00 0.309E+01   0.737E-04 -.908E-01 -.632E-01
   0.273E-03 0.901E+02 -.475E+04   0.237E-10 -.903E+02 0.475E+04   0.347E-17 0.181E+00 0.408E+01   0.246E-04 -.289E-01 -.687E-01
   -.566E-04 0.568E+03 -.104E+05   0.457E-11 -.567E+03 0.104E+05   0.000E+00 -.160E+01 0.234E+01   0.960E-05 -.642E-01 -.112E+00
   -.566E-04 0.568E+03 -.104E+05   0.453E-11 -.567E+03 0.104E+05   0.139E-16 -.160E+01 0.234E+01   0.960E-05 -.642E-01 -.112E+00
   -.566E-04 0.568E+03 -.104E+05   0.460E-11 -.567E+03 0.104E+05   0.000E+00 -.160E+01 0.234E+01   0.960E-05 -.642E-01 -.112E+00
   -.566E-04 0.568E+03 -.104E+05   0.443E-11 -.567E+03 0.104E+05   0.000E+00 -.160E+01 0.234E+01   0.960E-05 -.642E-01 -.112E+00
   0.112E-03 -.565E+03 -.104E+05   -.240E-11 0.563E+03 0.104E+05   -.278E-16 0.178E+01 0.220E+01   0.113E-04 0.928E-02 0.514E-01
   0.112E-03 -.565E+03 -.104E+05   -.258E-11 0.563E+03 0.104E+05   -.278E-16 0.178E+01 0.220E+01   0.113E-04 0.928E-02 0.514E-01
   0.200E-06 -.438E+03 -.442E+04   -.148E-11 0.437E+03 0.441E+04   -.347E-17 0.136E+00 0.309E+01   0.737E-04 -.908E-01 -.632E-01
   0.273E-03 0.901E+02 -.475E+04   0.236E-10 -.903E+02 0.475E+04   0.000E+00 0.181E+00 0.408E+01   0.246E-04 -.289E-01 -.687E-01
   -.877E-04 -.137E+03 0.296E+04   -.308E-11 0.137E+03 -.296E+04   0.104E-16 0.159E+00 -.121E+01   -.475E-06 0.351E-02 -.891E-01
   -.877E-04 -.137E+03 0.296E+04   -.300E-11 0.137E+03 -.296E+04   0.520E-17 0.159E+00 -.121E+01   -.475E-06 0.351E-02 -.891E-01
   -.200E-04 -.231E+02 0.100E+05   0.712E-11 0.231E+02 -.999E+04   -.477E-17 0.362E-01 -.341E+01   0.244E-06 -.369E-02 -.325E-01
   -.200E-04 -.231E+02 0.100E+05   0.708E-11 0.231E+02 -.999E+04   -.477E-17 0.362E-01 -.341E+01   0.244E-06 -.369E-02 -.325E-01
   -.200E-04 -.231E+02 0.100E+05   0.679E-11 0.231E+02 -.999E+04   -.390E-17 0.362E-01 -.341E+01   0.244E-06 -.369E-02 -.325E-01
   -.183E-04 0.211E+02 0.100E+05   0.693E-11 -.212E+02 -.999E+04   0.867E-18 0.845E-01 -.344E+01   0.127E-06 -.333E-02 -.329E-01
   -.183E-04 0.211E+02 0.100E+05   0.697E-11 -.212E+02 -.999E+04   0.347E-17 0.845E-01 -.344E+01   0.127E-06 -.333E-02 -.329E-01
   -.183E-04 0.211E+02 0.100E+05   0.691E-11 -.212E+02 -.999E+04   0.260E-17 0.845E-01 -.344E+01   0.127E-06 -.333E-02 -.329E-01
   -.183E-04 0.211E+02 0.100E+05   0.676E-11 -.212E+02 -.999E+04   0.520E-17 0.845E-01 -.344E+01   0.127E-06 -.333E-02 -.329E-01
   0.190E-04 0.234E+02 0.100E+05   0.702E-11 -.234E+02 -.100E+05   0.195E-17 -.150E-01 -.329E+01   -.247E-06 0.317E-02 -.336E-01
   0.190E-04 0.234E+02 0.100E+05   0.690E-11 -.234E+02 -.100E+05   0.108E-17 -.150E-01 -.329E+01   -.247E-06 0.317E-02 -.336E-01
   0.190E-04 0.234E+02 0.100E+05   0.689E-11 -.234E+02 -.100E+05   0.195E-17 -.150E-01 -.329E+01   -.247E-06 0.317E-02 -.336E-01
   0.190E-04 0.234E+02 0.100E+05   0.691E-11 -.234E+02 -.100E+05   -.217E-18 -.150E-01 -.329E+01   -.247E-06 0.317E-02 -.336E-01
   0.159E-04 -.213E+02 0.100E+05   0.690E-11 0.214E+02 -.100E+05   0.347E-17 -.758E-01 -.326E+01   -.128E-06 0.393E-02 -.317E-01
   0.159E-04 -.213E+02 0.100E+05   0.699E-11 0.214E+02 -.100E+05   -.173E-17 -.758E-01 -.326E+01   -.128E-06 0.393E-02 -.317E-01
   0.159E-04 -.213E+02 0.100E+05   0.710E-11 0.214E+02 -.100E+05   0.347E-17 -.758E-01 -.326E+01   -.128E-06 0.393E-02 -.317E-01
   0.159E-04 -.213E+02 0.100E+05   0.689E-11 0.214E+02 -.100E+05   0.434E-17 -.758E-01 -.326E+01   -.128E-06 0.393E-02 -.317E-01
   -.104E-03 -.446E+02 0.280E+04   -.215E-10 0.445E+02 -.280E+04   -.520E-17 0.162E+00 -.115E+01   0.714E-06 -.734E-02 -.673E-01
   -.104E-03 -.446E+02 0.280E+04   -.218E-10 0.445E+02 -.280E+04   0.347E-17 0.162E+00 -.115E+01   0.714E-06 -.734E-02 -.673E-01
   -.104E-03 -.446E+02 0.280E+04   -.217E-10 0.445E+02 -.280E+04   0.104E-16 0.162E+00 -.115E+01   0.714E-06 -.734E-02 -.673E-01
   -.104E-03 -.446E+02 0.280E+04   -.216E-10 0.445E+02 -.280E+04   0.173E-17 0.162E+00 -.115E+01   0.714E-06 -.734E-02 -.673E-01
   -.802E-04 0.133E+03 0.288E+04   -.735E-12 -.133E+03 -.288E+04   -.867E-17 -.145E+00 -.131E+01   0.434E-07 -.711E-02 -.827E-01
   -.802E-04 0.133E+03 0.288E+04   -.868E-12 -.133E+03 -.288E+04   -.173E-17 -.145E+00 -.131E+01   0.434E-07 -.711E-02 -.827E-01
   -.802E-04 0.133E+03 0.288E+04   -.855E-12 -.133E+03 -.288E+04   -.173E-17 -.145E+00 -.131E+01   0.434E-07 -.711E-02 -.827E-01
   -.802E-04 0.133E+03 0.288E+04   -.989E-12 -.133E+03 -.288E+04   -.173E-17 -.145E+00 -.131E+01   0.434E-07 -.711E-02 -.827E-01
   -.100E-03 0.492E+02 0.305E+04   -.162E-10 -.492E+02 -.305E+04   -.520E-17 -.157E+00 -.131E+01   -.266E-06 0.106E-01 -.717E-01
   -.100E-03 0.492E+02 0.305E+04   -.160E-10 -.492E+02 -.305E+04   0.694E-17 -.157E+00 -.131E+01   -.266E-06 0.106E-01 -.717E-01
   -.100E-03 0.492E+02 0.305E+04   -.162E-10 -.492E+02 -.305E+04   -.173E-17 -.157E+00 -.131E+01   -.265E-06 0.106E-01 -.717E-01
   -.100E-03 0.492E+02 0.305E+04   -.163E-10 -.492E+02 -.305E+04   0.156E-16 -.157E+00 -.131E+01   -.266E-06 0.106E-01 -.717E-01
   -.877E-04 -.137E+03 0.296E+04   -.299E-11 0.137E+03 -.296E+04   -.347E-17 0.159E+00 -.121E+01   -.475E-06 0.351E-02 -.891E-01
   -.877E-04 -.137E+03 0.296E+04   -.279E-11 0.137E+03 -.296E+04   0.520E-17 0.159E+00 -.121E+01   -.475E-06 0.351E-02 -.891E-01
   0.112E-03 -.565E+03 -.104E+05   -.277E-11 0.563E+03 0.104E+05   -.278E-16 0.178E+01 0.220E+01   0.113E-04 0.928E-02 0.514E-01
   0.112E-03 -.565E+03 -.104E+05   -.268E-11 0.563E+03 0.104E+05   -.278E-16 0.178E+01 0.220E+01   0.113E-04 0.928E-02 0.514E-01
 -----------------------------------------------------------------------------------------------
   0.187E-02 -.171E+00 0.430E+01   -.181E-12 -.114E-11 0.473E-10   -.642E-16 0.622E+00 0.518E+00   0.985E-04 -.518E+00 -.324E+01
 
 
 POSITION                                       TOTAL-FORCE (eV/Angst)
 -----------------------------------------------------------------------------------
      6.42583      2.32682     21.43748         0.000000     -0.003777     -0.005378
     11.56650      2.32682     21.43748         0.000000     -0.003777     -0.005378
      3.85550      2.32682     21.43748         0.000000     -0.003777     -0.005378
      8.99617      2.32682     21.43748         0.000000     -0.003777     -0.005378
      5.14067      8.79307     21.44071         0.000000      0.003931     -0.006893
      7.71100      8.79307     21.44071         0.000000      0.003931     -0.006893
     10.28133      8.79307     21.44071         0.000000      0.003931     -0.006893
     12.85167      8.79307     21.44071         0.000000      0.003931     -0.006893
     10.28133      5.94168     19.05875         0.000000      0.010879     -0.000493
      7.71100      5.94168     19.05875         0.000000      0.010879     -0.000493
      5.14067      5.94168     19.05875         0.000000      0.010879     -0.000493
     12.85167      5.94168     19.05875         0.000000      0.010879     -0.000493
      0.00000      0.00000     15.00000         0.000000      0.003999      0.325807
      8.99617      3.69759     19.09530         0.000000     -0.002213      0.002945
      6.42583      3.69759     19.09530         0.000000     -0.002213      0.002945
      3.85550      3.69759     19.09530         0.000000     -0.002213      0.002945
     11.56650      3.69759     19.09530         0.000000     -0.002213      0.002945
      7.71100      1.47461     19.13959         0.000000     -0.003483      0.000049
      5.14067      1.47461     19.13959         0.000000     -0.003483      0.000049
     14.13683      8.17004     19.10978         0.000000     -0.009773      0.011541
      6.42583      8.17004     19.10978         0.000000     -0.009773      0.011541
     11.56650      8.17004     19.10978         0.000000     -0.009773      0.011541
      2.57033      1.47461     19.13959         0.000000     -0.003483      0.000049
     12.85167      4.54033     21.09207         0.000000     -0.005386     -0.011657
      5.14067      4.54033     21.09207         0.000000     -0.005386     -0.011657
      7.71100      4.54033     21.09207         0.000000     -0.005386     -0.011657
     10.28133      4.54033     21.09207         0.000000     -0.005386     -0.011657
      3.85550      6.58143     21.08601         0.000000      0.001518      0.003598
      6.42583      6.58143     21.08601         0.000000      0.001518      0.003598
      8.99617      8.17004     19.10978         0.000000     -0.009773      0.011541
     10.28133      1.47461     19.13959         0.000000     -0.003483      0.000049
     12.85167      7.41991     17.09867        -0.000000      0.080623     -0.360406
     10.28133      7.41991     17.09867        -0.000000      0.080623     -0.360406
      2.57033      0.00000     15.00000         0.000000      0.003999      0.325807
      5.14067      0.00000     15.00000         0.000000      0.003999      0.325807
      7.71100      0.00000     15.00000         0.000000      0.003999      0.325807
      1.28517      2.22597     15.00000         0.000000      0.000546      0.309233
      3.85550      2.22597     15.00000         0.000000      0.000546      0.309233
      6.42583      2.22597     15.00000         0.000000      0.000546      0.309233
      8.99617      2.22597     15.00000         0.000000      0.000546      0.309233
      2.57033      4.45195     15.00000         0.000000     -0.001506      0.320297
      5.14067      4.45195     15.00000         0.000000     -0.001506      0.320297
      7.71100      4.45195     15.00000         0.000000     -0.001506      0.320297
     10.28133      4.45195     15.00000         0.000000     -0.001506      0.320297
      3.85550      6.67792     15.00000         0.000000      0.004420      0.308196
      6.42583      6.67792     15.00000         0.000000      0.004420      0.308196
      8.99617      6.67792     15.00000         0.000000      0.004420      0.308196
     11.56650      6.67792     15.00000         0.000000      0.004420      0.308196
      1.28517      0.74199     17.09867        -0.000000      0.034811     -0.166468
      3.85550      0.74199     17.09867        -0.000000      0.034811     -0.166468
      6.42583      0.74199     17.09867        -0.000000      0.034811     -0.166468
      8.99617      0.74199     17.09867        -0.000000      0.034811     -0.166468
      2.57033      2.96797     17.09867         0.000000     -0.046766     -0.270484
      5.14067      2.96797     17.09867         0.000000     -0.046766     -0.270484
      7.71100      2.96797     17.09867         0.000000     -0.046766     -0.270484
     10.28133      2.96797     17.09867         0.000000     -0.046766     -0.270484
      3.85550      5.19394     17.09867        -0.000000     -0.067824     -0.459888
      6.42583      5.19394     17.09867        -0.000000     -0.067824     -0.459888
      8.99617      5.19394     17.09867        -0.000000     -0.067824     -0.459888
     11.56650      5.19394     17.09867        -0.000000     -0.067824     -0.459888
      5.14067      7.41991     17.09867        -0.000000      0.080623     -0.360406
      7.71100      7.41991     17.09867        -0.000000      0.080623     -0.360406
      8.99617      6.58143     21.08601         0.000000      0.001518      0.003598
     11.56650      6.58143     21.08601         0.000000      0.001518      0.003598
 -----------------------------------------------------------------------------------
    total drift:                                0.001968     -0.067526      1.573264


--------------------------------------------------------------------------------------------------------



  FREE ENERGIE OF THE ION-ELECTRON SYSTEM (eV)
  ---------------------------------------------------
  free  energy   TOTEN  =      -244.54249746 eV

  energy  without entropy=     -244.50566174  energy(sigma->0) =     -244.53021889
 d Force = 0.2967920E-03[ 0.217E-03, 0.376E-03]  d Energy = 0.2386947E-03 0.581E-04
 d Force =-0.1743478E+02[-0.174E+02,-0.174E+02]  d Ewald  =-0.1743479E+02 0.145E-04
 


--------------------------------------------------------------------------------------------------------


    POTLOK:  cpu time      0.0881: real time      0.0891


--------------------------------------------------------------------------------------------------------


 Conjugate gradient step on ions:
 trial-energy change:   -0.000239  1 .order   -0.000297   -0.000376   -0.000217
  (g-gl).g = 0.270E-03      g.g   = 0.260E-03  gl.gl    = 0.112E-02
 g(Force)  = 0.260E-03   g(Stress)= 0.000E+00 ortho     =-0.154E-04
 gamma     =   0.24018
 trial     =   1.46535
 opt step  =   3.46831  (harmonic =   3.46831) maximal distance =0.00248361
 next E    =  -244.542704   (d E  =  -0.00045)


--------------------------------------------------------------------------------------------------------


  
 reached required accuracy - stopping structural energy minimisation
 writing wavefunctions
     LOOP+:  cpu time     35.4778: real time     35.6422
    4ORBIT:  cpu time      0.0000: real time      0.0000



 total charge

# of ion       s       p       d       tot
------------------------------------------
    1        0.497   0.335   9.162   9.994
    2        0.497   0.335   9.162   9.994
    3        0.497   0.335   9.162   9.994
    4        0.497   0.335   9.162   9.994
    5        0.497   0.333   9.163   9.993
    6        0.497   0.333   9.163   9.993
    7        0.497   0.333   9.163   9.993
    8        0.497   0.333   9.163   9.993
    9        0.302   6.206   8.864  15.372
   10        0.302   6.206   8.864  15.372
   11        0.302   6.206   8.864  15.372
   12        0.302   6.206   8.864  15.372
   13        0.298   6.138   8.882  15.318
   14        0.295   6.193   8.869  15.357
   15        0.295   6.193   8.869  15.357
   16        0.295   6.193   8.869  15.357
   17        0.295   6.193   8.869  15.357
   18        0.287   6.176   8.880  15.344
   19        0.287   6.176   8.880  15.344
   20        0.292   6.187   8.875  15.353
   21        0.292   6.187   8.875  15.353
   22        0.292   6.187   8.875  15.353
   23        0.287   6.176   8.880  15.344
   24        0.314   6.165   8.888  15.366
   25        0.314   6.165   8.888  15.366
   26        0.314   6.165   8.888  15.366
   27        0.314   6.165   8.888  15.366
   28        0.314   6.165   8.888  15.367
   29        0.314   6.165   8.888  15.367
   30        0.292   6.187   8.875  15.353
   31        0.287   6.176   8.880  15.344
   32        0.294   6.192   8.866  15.352
   33        0.294   6.192   8.866  15.352
   34        0.298   6.138   8.882  15.318
   35        0.298   6.138   8.882  15.318
   36        0.298   6.138   8.882  15.318
   37        0.298   6.138   8.882  15.317
   38        0.298   6.138   8.882  15.317
   39        0.298   6.138   8.882  15.317
   40        0.298   6.138   8.882  15.317
   41        0.298   6.137   8.883  15.318
   42        0.298   6.137   8.883  15.318
   43        0.298   6.137   8.883  15.318
   44        0.298   6.137   8.883  15.318
   45        0.298   6.137   8.883  15.318
   46        0.298   6.137   8.883  15.318
   47        0.298   6.137   8.883  15.318
   48        0.298   6.137   8.883  15.318
   49        0.291   6.189   8.866  15.346
   50        0.291   6.189   8.866  15.346
   51        0.291   6.189   8.866  15.346
   52        0.291   6.189   8.866  15.346
   53        0.293   6.190   8.866  15.350
   54        0.293   6.190   8.866  15.350
   55        0.293   6.190   8.866  15.350
   56        0.293   6.190   8.866  15.350
   57        0.295   6.194   8.866  15.355
   58        0.295   6.194   8.866  15.355
   59        0.295   6.194   8.866  15.355
   60        0.295   6.194   8.866  15.355
   61        0.294   6.192   8.866  15.352
   62        0.294   6.192   8.866  15.352
   63        0.314   6.165   8.888  15.367
   64        0.314   6.165   8.888  15.367
--------------------------------------------------
tot         20.652 348.291 570.339 939.282
 

 total amount of memory used by VASP MPI-rank0  2846305. kBytes
=======================================================================

   base                                    :      30000. kBytes
   nonlr-proj                              :      14369. kBytes
   fftplans                                :     123120. kBytes
   grid                                    :     220440. kBytes
   one-center                              :        995. kBytes
   wavefun                                 :    2457381. kBytes
 
  
  
 General timing and accounting informations for this job:
 ========================================================
  
                  Total CPU time used (sec):     1725.397
                            User time (sec):     1695.892
                          System time (sec):       29.505
                         Elapsed time (sec):     1733.933
  
                   Maximum memory used (kb):     4528500.
                   Average memory used (kb):          N/A
  
                          Minor page faults:     27920844
                          Major page faults:          111
                 Voluntary context switches:        37134
