Cu-Au(111) 4x4 slab relaxation          
            1
    10.281333    0.000000    0.000000
     5.140666    8.903895    0.000000
     0.000000    0.000000   36.296005
   Ag   Cu
     8    56
Direct configuration=     1
   0.50021589  0.24956821  0.58844428
   0.00021589  0.24956821  0.58844428
   0.25021589  0.24956821  0.58844428
   0.75021589  0.24956821  0.58844428
   0.00515629  0.98968742  0.58302962
   0.25515629  0.98968742  0.58302962
   0.50515629  0.98968742  0.58302962
   0.75515629  0.98968742  0.58302962
   0.66651358  0.66697285  0.52629768
   0.41651358  0.66697285  0.52629768
   0.16651358  0.66697285  0.52629768
   0.91651358  0.66697285  0.52629768
   0.00000000  0.00000000  0.41326863
   0.66580791  0.41838418  0.52652043
   0.41580791  0.41838418  0.52652043
   0.16580791  0.41838418  0.52652043
   0.91580791  0.41838418  0.52652043
   0.66775895  0.16448209  0.52604372
   0.41775895  0.16448209  0.52604372
   0.91717436  0.91565128  0.52629789
   0.16717436  0.91565128  0.52629789
   0.66717436  0.91565128  0.52629789
   0.16775895  0.16448209  0.52604372
   0.99507758  0.50984485  0.58309876
   0.24507758  0.50984485  0.58309876
   0.49507758  0.50984485  0.58309876
   0.74507758  0.50984485  0.58309876
   0.00011752  0.74976496  0.58255171
   0.25011752  0.74976496  0.58255171
   0.41717436  0.91565128  0.52629789
   0.91775895  0.16448209  0.52604372
   0.83333333  0.83333333  0.47108954
   0.58333333  0.83333333  0.47108954
   0.25000000  0.00000000  0.41326863
   0.50000000  0.00000000  0.41326863
   0.75000000  0.00000000  0.41326863
   0.00000000  0.25000000  0.41326863
   0.25000000  0.25000000  0.41326863
   0.50000000  0.25000000  0.41326863
   0.75000000  0.25000000  0.41326863
   0.00000000  0.50000000  0.41326863
   0.25000000  0.50000000  0.41326863
   0.50000000  0.50000000  0.41326863
   0.75000000  0.50000000  0.41326863
   0.00000000  0.75000000  0.41326863
   0.25000000  0.75000000  0.41326863
   0.50000000  0.75000000  0.41326863
   0.75000000  0.75000000  0.41326863
   0.08333333  0.08333333  0.47108954
   0.33333333  0.08333333  0.47108954
   0.58333333  0.08333333  0.47108954
   0.83333333  0.08333333  0.47108954
   0.08333333  0.33333333  0.47108954
   0.33333333  0.33333333  0.47108954
   0.58333333  0.33333333  0.47108954
   0.83333333  0.33333333  0.47108954
   0.08333333  0.58333333  0.47108954
   0.33333333  0.58333333  0.47108954
   0.58333333  0.58333333  0.47108954
   0.83333333  0.58333333  0.47108954
   0.08333333  0.83333333  0.47108954
   0.33333333  0.83333333  0.47108954
   0.50011752  0.74976496  0.58255171
   0.75011752  0.74976496  0.58255171
Direct configuration=     2
   0.49717743  0.25564514  0.58869605
   0.99717743  0.25564514  0.58869605
   0.24717743  0.25564514  0.58869605
   0.74717743  0.25564514  0.58869605
   0.00511121  0.98977758  0.58468644
   0.25511121  0.98977758  0.58468644
   0.50511121  0.98977758  0.58468644
   0.75511121  0.98977758  0.58468644
   0.66650854  0.66698292  0.52624435
   0.41650854  0.66698292  0.52624435
   0.16650854  0.66698292  0.52624435
   0.91650854  0.66698292  0.52624435
   0.00000000  0.00000000  0.41326863
   0.66597952  0.41804097  0.52662526
   0.41597952  0.41804097  0.52662526
   0.16597952  0.41804097  0.52662526
   0.91597952  0.41804097  0.52662526
   0.66683441  0.16633117  0.52554292
   0.41683441  0.16633117  0.52554292
   0.91805435  0.91389130  0.52488518
   0.16805435  0.91389130  0.52488518
   0.66805435  0.91389130  0.52488518
   0.16683441  0.16633117  0.52554292
   0.99488835  0.51022329  0.58298386
   0.24488835  0.51022329  0.58298386
   0.49488835  0.51022329  0.58298386
   0.74488835  0.51022329  0.58298386
   0.00327455  0.74345091  0.58263399
   0.25327455  0.74345091  0.58263399
   0.41805435  0.91389130  0.52488518
   0.91683441  0.16633117  0.52554292
   0.83333333  0.83333333  0.47108954
   0.58333333  0.83333333  0.47108954
   0.25000000  0.00000000  0.41326863
   0.50000000  0.00000000  0.41326863
   0.75000000  0.00000000  0.41326863
   0.00000000  0.25000000  0.41326863
   0.25000000  0.25000000  0.41326863
   0.50000000  0.25000000  0.41326863
   0.75000000  0.25000000  0.41326863
   0.00000000  0.50000000  0.41326863
   0.25000000  0.50000000  0.41326863
   0.50000000  0.50000000  0.41326863
   0.75000000  0.50000000  0.41326863
   0.00000000  0.75000000  0.41326863
   0.25000000  0.75000000  0.41326863
   0.50000000  0.75000000  0.41326863
   0.75000000  0.75000000  0.41326863
   0.08333333  0.08333333  0.47108954
   0.33333333  0.08333333  0.47108954
   0.58333333  0.08333333  0.47108954
   0.83333333  0.08333333  0.47108954
   0.08333333  0.33333333  0.47108954
   0.33333333  0.33333333  0.47108954
   0.58333333  0.33333333  0.47108954
   0.83333333  0.33333333  0.47108954
   0.08333333  0.58333333  0.47108954
   0.33333333  0.58333333  0.47108954
   0.58333333  0.58333333  0.47108954
   0.83333333  0.58333333  0.47108954
   0.08333333  0.83333333  0.47108954
   0.33333333  0.83333333  0.47108954
   0.50327455  0.74345091  0.58263399
   0.75327455  0.74345091  0.58263399
Direct configuration=     3
   0.49515784  0.25968432  0.58886339
   0.99515784  0.25968432  0.58886339
   0.24515784  0.25968432  0.58886339
   0.74515784  0.25968432  0.58886339
   0.00508125  0.98983751  0.58578768
   0.25508125  0.98983751  0.58578768
   0.50508125  0.98983751  0.58578768
   0.75508125  0.98983751  0.58578768
   0.66650519  0.66698962  0.52620891
   0.41650519  0.66698962  0.52620891
   0.16650519  0.66698962  0.52620891
   0.91650519  0.66698962  0.52620891
   0.00000000  0.00000000  0.41326863
   0.66609358  0.41781284  0.52669494
   0.41609358  0.41781284  0.52669494
   0.16609358  0.41781284  0.52669494
   0.91609358  0.41781284  0.52669494
   0.66621990  0.16756021  0.52521004
   0.41621990  0.16756021  0.52521004
   0.91863926  0.91272148  0.52394619
   0.16863926  0.91272148  0.52394619
   0.66863926  0.91272148  0.52394619
   0.16621990  0.16756021  0.52521004
   0.99476258  0.51047483  0.58290748
   0.24476258  0.51047483  0.58290748
   0.49476258  0.51047483  0.58290748
   0.74476258  0.51047483  0.58290748
   0.00537294  0.73925412  0.58268867
   0.25537294  0.73925412  0.58268867
   0.41863926  0.91272148  0.52394619
   0.91621990  0.16756021  0.52521004
   0.83333333  0.83333333  0.47108954
   0.58333333  0.83333333  0.47108954
   0.25000000  0.00000000  0.41326863
   0.50000000  0.00000000  0.41326863
   0.75000000  0.00000000  0.41326863
   0.00000000  0.25000000  0.41326863
   0.25000000  0.25000000  0.41326863
   0.50000000  0.25000000  0.41326863
   0.75000000  0.25000000  0.41326863
   0.00000000  0.50000000  0.41326863
   0.25000000  0.50000000  0.41326863
   0.50000000  0.50000000  0.41326863
   0.75000000  0.50000000  0.41326863
   0.00000000  0.75000000  0.41326863
   0.25000000  0.75000000  0.41326863
   0.50000000  0.75000000  0.41326863
   0.75000000  0.75000000  0.41326863
   0.08333333  0.08333333  0.47108954
   0.33333333  0.08333333  0.47108954
   0.58333333  0.08333333  0.47108954
   0.83333333  0.08333333  0.47108954
   0.08333333  0.33333333  0.47108954
   0.33333333  0.33333333  0.47108954
   0.58333333  0.33333333  0.47108954
   0.83333333  0.33333333  0.47108954
   0.08333333  0.58333333  0.47108954
   0.33333333  0.58333333  0.47108954
   0.58333333  0.58333333  0.47108954
   0.83333333  0.58333333  0.47108954
   0.08333333  0.83333333  0.47108954
   0.33333333  0.83333333  0.47108954
   0.50537294  0.73925412  0.58268867
   0.75537294  0.73925412  0.58268867
Direct configuration=     4
   0.49533842  0.25932316  0.58884843
   0.99533842  0.25932316  0.58884843
   0.24533842  0.25932316  0.58884843
   0.74533842  0.25932316  0.58884843
   0.00508392  0.98983215  0.58568921
   0.25508392  0.98983215  0.58568921
   0.50508392  0.98983215  0.58568921
   0.75508392  0.98983215  0.58568921
   0.66650549  0.66698902  0.52621208
   0.41650549  0.66698902  0.52621208
   0.16650549  0.66698902  0.52621208
   0.91650549  0.66698902  0.52621208
   0.00000000  0.00000000  0.41326863
   0.66608338  0.41783324  0.52668871
   0.41608338  0.41783324  0.52668871
   0.16608338  0.41783324  0.52668871
   0.91608338  0.41783324  0.52668871
   0.66627484  0.16745031  0.52523981
   0.41627484  0.16745031  0.52523981
   0.91858696  0.91282608  0.52403015
   0.16858696  0.91282608  0.52403015
   0.66858696  0.91282608  0.52403015
   0.16627484  0.16745031  0.52523981
   0.99477383  0.51045234  0.58291431
   0.24477383  0.51045234  0.58291431
   0.49477383  0.51045234  0.58291431
   0.74477383  0.51045234  0.58291431
   0.00518532  0.73962937  0.58268379
   0.25518532  0.73962937  0.58268379
   0.41858696  0.91282608  0.52403015
   0.91627484  0.16745031  0.52523981
   0.83333333  0.83333333  0.47108954
   0.58333333  0.83333333  0.47108954
   0.25000000  0.00000000  0.41326863
   0.50000000  0.00000000  0.41326863
   0.75000000  0.00000000  0.41326863
   0.00000000  0.25000000  0.41326863
   0.25000000  0.25000000  0.41326863
   0.50000000  0.25000000  0.41326863
   0.75000000  0.25000000  0.41326863
   0.00000000  0.50000000  0.41326863
   0.25000000  0.50000000  0.41326863
   0.50000000  0.50000000  0.41326863
   0.75000000  0.50000000  0.41326863
   0.00000000  0.75000000  0.41326863
   0.25000000  0.75000000  0.41326863
   0.50000000  0.75000000  0.41326863
   0.75000000  0.75000000  0.41326863
   0.08333333  0.08333333  0.47108954
   0.33333333  0.08333333  0.47108954
   0.58333333  0.08333333  0.47108954
   0.83333333  0.08333333  0.47108954
   0.08333333  0.33333333  0.47108954
   0.33333333  0.33333333  0.47108954
   0.58333333  0.33333333  0.47108954
   0.83333333  0.33333333  0.47108954
   0.08333333  0.58333333  0.47108954
   0.33333333  0.58333333  0.47108954
   0.58333333  0.58333333  0.47108954
   0.83333333  0.58333333  0.47108954
   0.08333333  0.83333333  0.47108954
   0.33333333  0.83333333  0.47108954
   0.50518532  0.73962937  0.58268379
   0.75518532  0.73962937  0.58268379
Direct configuration=     5
   0.49461418  0.26077165  0.58898251
   0.99461418  0.26077165  0.58898251
   0.24461418  0.26077165  0.58898251
   0.74461418  0.26077165  0.58898251
   0.00552240  0.98895519  0.58613142
   0.25552240  0.98895519  0.58613142
   0.50552240  0.98895519  0.58613142
   0.75552240  0.98895519  0.58613142
   0.66663904  0.66672192  0.52605330
   0.41663904  0.66672192  0.52605330
   0.16663904  0.66672192  0.52605330
   0.91663904  0.66672192  0.52605330
   0.00000000  0.00000000  0.41326863
   0.66596957  0.41806086  0.52662427
   0.41596957  0.41806086  0.52662427
   0.16596957  0.41806086  0.52662427
   0.91596957  0.41806086  0.52662427
   0.66629011  0.16741979  0.52546556
   0.41629011  0.16741979  0.52546556
   0.91842302  0.91315395  0.52452925
   0.16842302  0.91315395  0.52452925
   0.66842302  0.91315395  0.52452925
   0.16629011  0.16741979  0.52546556
   0.99484079  0.51031842  0.58287045
   0.24484079  0.51031842  0.58287045
   0.49484079  0.51031842  0.58287045
   0.74484079  0.51031842  0.58287045
   0.00546129  0.73907743  0.58261895
   0.25546129  0.73907743  0.58261895
   0.41842302  0.91315395  0.52452925
   0.91629011  0.16741979  0.52546556
   0.83333333  0.83333333  0.47108954
   0.58333333  0.83333333  0.47108954
   0.25000000  0.00000000  0.41326863
   0.50000000  0.00000000  0.41326863
   0.75000000  0.00000000  0.41326863
   0.00000000  0.25000000  0.41326863
   0.25000000  0.25000000  0.41326863
   0.50000000  0.25000000  0.41326863
   0.75000000  0.25000000  0.41326863
   0.00000000  0.50000000  0.41326863
   0.25000000  0.50000000  0.41326863
   0.50000000  0.50000000  0.41326863
   0.75000000  0.50000000  0.41326863
   0.00000000  0.75000000  0.41326863
   0.25000000  0.75000000  0.41326863
   0.50000000  0.75000000  0.41326863
   0.75000000  0.75000000  0.41326863
   0.08333333  0.08333333  0.47108954
   0.33333333  0.08333333  0.47108954
   0.58333333  0.08333333  0.47108954
   0.83333333  0.08333333  0.47108954
   0.08333333  0.33333333  0.47108954
   0.33333333  0.33333333  0.47108954
   0.58333333  0.33333333  0.47108954
   0.83333333  0.33333333  0.47108954
   0.08333333  0.58333333  0.47108954
   0.33333333  0.58333333  0.47108954
   0.58333333  0.58333333  0.47108954
   0.83333333  0.58333333  0.47108954
   0.08333333  0.83333333  0.47108954
   0.33333333  0.83333333  0.47108954
   0.50546129  0.73907743  0.58261895
   0.75546129  0.73907743  0.58261895
Direct configuration=     6
   0.49418535  0.26162929  0.58906190
   0.99418535  0.26162929  0.58906190
   0.24418535  0.26162929  0.58906190
   0.74418535  0.26162929  0.58906190
   0.00578203  0.98843595  0.58639325
   0.25578203  0.98843595  0.58639325
   0.50578203  0.98843595  0.58639325
   0.75578203  0.98843595  0.58639325
   0.66671811  0.66656377  0.52595928
   0.41671811  0.66656377  0.52595928
   0.16671811  0.66656377  0.52595928
   0.91671811  0.66656377  0.52595928
   0.00000000  0.00000000  0.41326863
   0.66590218  0.41819564  0.52658611
   0.41590218  0.41819564  0.52658611
   0.16590218  0.41819564  0.52658611
   0.91590218  0.41819564  0.52658611
   0.66629914  0.16740172  0.52559922
   0.41629914  0.16740172  0.52559922
   0.91832596  0.91334808  0.52482476
   0.16832596  0.91334808  0.52482476
   0.66832596  0.91334808  0.52482476
   0.16629914  0.16740172  0.52559922
   0.99488043  0.51023913  0.58284449
   0.24488043  0.51023913  0.58284449
   0.49488043  0.51023913  0.58284449
   0.74488043  0.51023913  0.58284449
   0.00562469  0.73875062  0.58258055
   0.25562469  0.73875062  0.58258055
   0.41832596  0.91334808  0.52482476
   0.91629914  0.16740172  0.52559922
   0.83333333  0.83333333  0.47108954
   0.58333333  0.83333333  0.47108954
   0.25000000  0.00000000  0.41326863
   0.50000000  0.00000000  0.41326863
   0.75000000  0.00000000  0.41326863
   0.00000000  0.25000000  0.41326863
   0.25000000  0.25000000  0.41326863
   0.50000000  0.25000000  0.41326863
   0.75000000  0.25000000  0.41326863
   0.00000000  0.50000000  0.41326863
   0.25000000  0.50000000  0.41326863
   0.50000000  0.50000000  0.41326863
   0.75000000  0.50000000  0.41326863
   0.00000000  0.75000000  0.41326863
   0.25000000  0.75000000  0.41326863
   0.50000000  0.75000000  0.41326863
   0.75000000  0.75000000  0.41326863
   0.08333333  0.08333333  0.47108954
   0.33333333  0.08333333  0.47108954
   0.58333333  0.08333333  0.47108954
   0.83333333  0.08333333  0.47108954
   0.08333333  0.33333333  0.47108954
   0.33333333  0.33333333  0.47108954
   0.58333333  0.33333333  0.47108954
   0.83333333  0.33333333  0.47108954
   0.08333333  0.58333333  0.47108954
   0.33333333  0.58333333  0.47108954
   0.58333333  0.58333333  0.47108954
   0.83333333  0.58333333  0.47108954
   0.08333333  0.83333333  0.47108954
   0.33333333  0.83333333  0.47108954
   0.50562469  0.73875062  0.58258055
   0.75562469  0.73875062  0.58258055
Direct configuration=     7
   0.49332771  0.26334458  0.58922068
   0.99332771  0.26334458  0.58922068
   0.24332771  0.26334458  0.58922068
   0.74332771  0.26334458  0.58922068
   0.00630127  0.98739746  0.58691691
   0.25630127  0.98739746  0.58691691
   0.50630127  0.98739746  0.58691691
   0.75630127  0.98739746  0.58691691
   0.66687626  0.66624748  0.52577125
   0.41687626  0.66624748  0.52577125
   0.16687626  0.66624748  0.52577125
   0.91687626  0.66624748  0.52577125
   0.00000000  0.00000000  0.41326863
   0.66576740  0.41846519  0.52650981
   0.41576740  0.41846519  0.52650981
   0.16576740  0.41846519  0.52650981
   0.91576740  0.41846519  0.52650981
   0.66631722  0.16736557  0.52586655
   0.41631722  0.16736557  0.52586655
   0.91813183  0.91373635  0.52541579
   0.16813183  0.91373635  0.52541579
   0.66813183  0.91373635  0.52541579
   0.16631722  0.16736557  0.52586655
   0.99495973  0.51008054  0.58279256
   0.24495973  0.51008054  0.58279256
   0.49495973  0.51008054  0.58279256
   0.74495973  0.51008054  0.58279256
   0.00595149  0.73809702  0.58250377
   0.25595149  0.73809702  0.58250377
   0.41813183  0.91373635  0.52541579
   0.91631722  0.16736557  0.52586655
   0.83333333  0.83333333  0.47108954
   0.58333333  0.83333333  0.47108954
   0.25000000  0.00000000  0.41326863
   0.50000000  0.00000000  0.41326863
   0.75000000  0.00000000  0.41326863
   0.00000000  0.25000000  0.41326863
   0.25000000  0.25000000  0.41326863
   0.50000000  0.25000000  0.41326863
   0.75000000  0.25000000  0.41326863
   0.00000000  0.50000000  0.41326863
   0.25000000  0.50000000  0.41326863
   0.50000000  0.50000000  0.41326863
   0.75000000  0.50000000  0.41326863
   0.00000000  0.75000000  0.41326863
   0.25000000  0.75000000  0.41326863
   0.50000000  0.75000000  0.41326863
   0.75000000  0.75000000  0.41326863
   0.08333333  0.08333333  0.47108954
   0.33333333  0.08333333  0.47108954
   0.58333333  0.08333333  0.47108954
   0.83333333  0.08333333  0.47108954
   0.08333333  0.33333333  0.47108954
   0.33333333  0.33333333  0.47108954
   0.58333333  0.33333333  0.47108954
   0.83333333  0.33333333  0.47108954
   0.08333333  0.58333333  0.47108954
   0.33333333  0.58333333  0.47108954
   0.58333333  0.58333333  0.47108954
   0.83333333  0.58333333  0.47108954
   0.08333333  0.83333333  0.47108954
   0.33333333  0.83333333  0.47108954
   0.50595149  0.73809702  0.58250377
   0.75595149  0.73809702  0.58250377
Direct configuration=     8
   0.49382806  0.26234389  0.58948272
   0.99382806  0.26234389  0.58948272
   0.24382806  0.26234389  0.58948272
   0.74382806  0.26234389  0.58948272
   0.00595160  0.98809681  0.58776094
   0.25595160  0.98809681  0.58776094
   0.50595160  0.98809681  0.58776094
   0.75595160  0.98809681  0.58776094
   0.66683607  0.66632786  0.52559077
   0.41683607  0.66632786  0.52559077
   0.16683607  0.66632786  0.52559077
   0.91683607  0.66632786  0.52559077
   0.00000000  0.00000000  0.41326863
   0.66575678  0.41848644  0.52639559
   0.41575678  0.41848644  0.52639559
   0.16575678  0.41848644  0.52639559
   0.91575678  0.41848644  0.52639559
   0.66649602  0.16700795  0.52625006
   0.41649602  0.16700795  0.52625006
   0.91788379  0.91423243  0.52580627
   0.16788379  0.91423243  0.52580627
   0.66788379  0.91423243  0.52580627
   0.16649602  0.16700795  0.52625006
   0.99457509  0.51084982  0.58268053
   0.24457509  0.51084982  0.58268053
   0.49457509  0.51084982  0.58268053
   0.74457509  0.51084982  0.58268053
   0.00625214  0.73749573  0.58237858
   0.25625214  0.73749573  0.58237858
   0.41788379  0.91423243  0.52580627
   0.91649602  0.16700795  0.52625006
   0.83333333  0.83333333  0.47108954
   0.58333333  0.83333333  0.47108954
   0.25000000  0.00000000  0.41326863
   0.50000000  0.00000000  0.41326863
   0.75000000  0.00000000  0.41326863
   0.00000000  0.25000000  0.41326863
   0.25000000  0.25000000  0.41326863
   0.50000000  0.25000000  0.41326863
   0.75000000  0.25000000  0.41326863
   0.00000000  0.50000000  0.41326863
   0.25000000  0.50000000  0.41326863
   0.50000000  0.50000000  0.41326863
   0.75000000  0.50000000  0.41326863
   0.00000000  0.75000000  0.41326863
   0.25000000  0.75000000  0.41326863
   0.50000000  0.75000000  0.41326863
   0.75000000  0.75000000  0.41326863
   0.08333333  0.08333333  0.47108954
   0.33333333  0.08333333  0.47108954
   0.58333333  0.08333333  0.47108954
   0.83333333  0.08333333  0.47108954
   0.08333333  0.33333333  0.47108954
   0.33333333  0.33333333  0.47108954
   0.58333333  0.33333333  0.47108954
   0.83333333  0.33333333  0.47108954
   0.08333333  0.58333333  0.47108954
   0.33333333  0.58333333  0.47108954
   0.58333333  0.58333333  0.47108954
   0.83333333  0.58333333  0.47108954
   0.08333333  0.83333333  0.47108954
   0.33333333  0.83333333  0.47108954
   0.50625214  0.73749573  0.58237858
   0.75625214  0.73749573  0.58237858
Direct configuration=     9
   0.49399708  0.26200584  0.58957125
   0.99399708  0.26200584  0.58957125
   0.24399708  0.26200584  0.58957125
   0.74399708  0.26200584  0.58957125
   0.00583347  0.98833306  0.58804607
   0.25583347  0.98833306  0.58804607
   0.50583347  0.98833306  0.58804607
   0.75583347  0.98833306  0.58804607
   0.66682249  0.66635501  0.52552980
   0.41682249  0.66635501  0.52552980
   0.16682249  0.66635501  0.52552980
   0.91682249  0.66635501  0.52552980
   0.00000000  0.00000000  0.41326863
   0.66575319  0.41849361  0.52635701
   0.41575319  0.41849361  0.52635701
   0.16575319  0.41849361  0.52635701
   0.91575319  0.41849361  0.52635701
   0.66655643  0.16688714  0.52637961
   0.41655643  0.16688714  0.52637961
   0.91780000  0.91440001  0.52593818
   0.16780000  0.91440001  0.52593818
   0.66780000  0.91440001  0.52593818
   0.16655643  0.16688714  0.52637961
   0.99444515  0.51110969  0.58264269
   0.24444515  0.51110969  0.58264269
   0.49444515  0.51110969  0.58264269
   0.74444515  0.51110969  0.58264269
   0.00635370  0.73729261  0.58233629
   0.25635370  0.73729261  0.58233629
   0.41780000  0.91440001  0.52593818
   0.91655643  0.16688714  0.52637961
   0.83333333  0.83333333  0.47108954
   0.58333333  0.83333333  0.47108954
   0.25000000  0.00000000  0.41326863
   0.50000000  0.00000000  0.41326863
   0.75000000  0.00000000  0.41326863
   0.00000000  0.25000000  0.41326863
   0.25000000  0.25000000  0.41326863
   0.50000000  0.25000000  0.41326863
   0.75000000  0.25000000  0.41326863
   0.00000000  0.50000000  0.41326863
   0.25000000  0.50000000  0.41326863
   0.50000000  0.50000000  0.41326863
   0.75000000  0.50000000  0.41326863
   0.00000000  0.75000000  0.41326863
   0.25000000  0.75000000  0.41326863
   0.50000000  0.75000000  0.41326863
   0.75000000  0.75000000  0.41326863
   0.08333333  0.08333333  0.47108954
   0.33333333  0.08333333  0.47108954
   0.58333333  0.08333333  0.47108954
   0.83333333  0.08333333  0.47108954
   0.08333333  0.33333333  0.47108954
   0.33333333  0.33333333  0.47108954
   0.58333333  0.33333333  0.47108954
   0.83333333  0.33333333  0.47108954
   0.08333333  0.58333333  0.47108954
   0.33333333  0.58333333  0.47108954
   0.58333333  0.58333333  0.47108954
   0.83333333  0.58333333  0.47108954
   0.08333333  0.83333333  0.47108954
   0.33333333  0.83333333  0.47108954
   0.50635370  0.73729261  0.58233629
   0.75635370  0.73729261  0.58233629
Direct configuration=    10
   0.49433513  0.26132975  0.58974829
   0.99433513  0.26132975  0.58974829
   0.24433513  0.26132975  0.58974829
   0.74433513  0.26132975  0.58974829
   0.00559722  0.98880555  0.58861631
   0.25559722  0.98880555  0.58861631
   0.50559722  0.98880555  0.58861631
   0.75559722  0.98880555  0.58861631
   0.66679534  0.66640932  0.52540786
   0.41679534  0.66640932  0.52540786
   0.16679534  0.66640932  0.52540786
   0.91679534  0.66640932  0.52540786
   0.00000000  0.00000000  0.41326863
   0.66574602  0.41850797  0.52627984
   0.41574602  0.41850797  0.52627984
   0.16574602  0.41850797  0.52627984
   0.91574602  0.41850797  0.52627984
   0.66667723  0.16664553  0.52663871
   0.41667723  0.16664553  0.52663871
   0.91763241  0.91473517  0.52620200
   0.16763241  0.91473517  0.52620200
   0.66763241  0.91473517  0.52620200
   0.16667723  0.16664553  0.52663871
   0.99418529  0.51162943  0.58256701
   0.24418529  0.51162943  0.58256701
   0.49418529  0.51162943  0.58256701
   0.74418529  0.51162943  0.58256701
   0.00655682  0.73688637  0.58225171
   0.25655682  0.73688637  0.58225171
   0.41763241  0.91473517  0.52620200
   0.91667723  0.16664553  0.52663871
   0.83333333  0.83333333  0.47108954
   0.58333333  0.83333333  0.47108954
   0.25000000  0.00000000  0.41326863
   0.50000000  0.00000000  0.41326863
   0.75000000  0.00000000  0.41326863
   0.00000000  0.25000000  0.41326863
   0.25000000  0.25000000  0.41326863
   0.50000000  0.25000000  0.41326863
   0.75000000  0.25000000  0.41326863
   0.00000000  0.50000000  0.41326863
   0.25000000  0.50000000  0.41326863
   0.50000000  0.50000000  0.41326863
   0.75000000  0.50000000  0.41326863
   0.00000000  0.75000000  0.41326863
   0.25000000  0.75000000  0.41326863
   0.50000000  0.75000000  0.41326863
   0.75000000  0.75000000  0.41326863
   0.08333333  0.08333333  0.47108954
   0.33333333  0.08333333  0.47108954
   0.58333333  0.08333333  0.47108954
   0.83333333  0.08333333  0.47108954
   0.08333333  0.33333333  0.47108954
   0.33333333  0.33333333  0.47108954
   0.58333333  0.33333333  0.47108954
   0.83333333  0.33333333  0.47108954
   0.08333333  0.58333333  0.47108954
   0.33333333  0.58333333  0.47108954
   0.58333333  0.58333333  0.47108954
   0.83333333  0.58333333  0.47108954
   0.08333333  0.83333333  0.47108954
   0.33333333  0.83333333  0.47108954
   0.50655682  0.73688637  0.58225171
   0.75655682  0.73688637  0.58225171
Direct configuration=    11
   0.49451718  0.26096564  0.59002328
   0.99451718  0.26096564  0.59002328
   0.24451718  0.26096564  0.59002328
   0.74451718  0.26096564  0.59002328
   0.00572445  0.98855109  0.58963905
   0.25572445  0.98855109  0.58963905
   0.50572445  0.98855109  0.58963905
   0.75572445  0.98855109  0.58963905
   0.66652468  0.66695063  0.52530615
   0.41652468  0.66695063  0.52530615
   0.16652468  0.66695063  0.52530615
   0.91652468  0.66695063  0.52530615
   0.00000000  0.00000000  0.41326863
   0.66606793  0.41786413  0.52628102
   0.41606793  0.41786413  0.52628102
   0.16606793  0.41786413  0.52628102
   0.91606793  0.41786413  0.52628102
   0.66688282  0.16623435  0.52704910
   0.41688282  0.16623435  0.52704910
   0.91732931  0.91534138  0.52643201
   0.16732931  0.91534138  0.52643201
   0.66732931  0.91534138  0.52643201
   0.16688282  0.16623435  0.52704910
   0.99469366  0.51061267  0.58240469
   0.24469366  0.51061267  0.58240469
   0.49469366  0.51061267  0.58240469
   0.74469366  0.51061267  0.58240469
   0.00577987  0.73844027  0.58207866
   0.25577987  0.73844027  0.58207866
   0.41732931  0.91534138  0.52643201
   0.91688282  0.16623435  0.52704910
   0.83333333  0.83333333  0.47108954
   0.58333333  0.83333333  0.47108954
   0.25000000  0.00000000  0.41326863
   0.50000000  0.00000000  0.41326863
   0.75000000  0.00000000  0.41326863
   0.00000000  0.25000000  0.41326863
   0.25000000  0.25000000  0.41326863
   0.50000000  0.25000000  0.41326863
   0.75000000  0.25000000  0.41326863
   0.00000000  0.50000000  0.41326863
   0.25000000  0.50000000  0.41326863
   0.50000000  0.50000000  0.41326863
   0.75000000  0.50000000  0.41326863
   0.00000000  0.75000000  0.41326863
   0.25000000  0.75000000  0.41326863
   0.50000000  0.75000000  0.41326863
   0.75000000  0.75000000  0.41326863
   0.08333333  0.08333333  0.47108954
   0.33333333  0.08333333  0.47108954
   0.58333333  0.08333333  0.47108954
   0.83333333  0.08333333  0.47108954
   0.08333333  0.33333333  0.47108954
   0.33333333  0.33333333  0.47108954
   0.58333333  0.33333333  0.47108954
   0.83333333  0.33333333  0.47108954
   0.08333333  0.58333333  0.47108954
   0.33333333  0.58333333  0.47108954
   0.58333333  0.58333333  0.47108954
   0.83333333  0.58333333  0.47108954
   0.08333333  0.83333333  0.47108954
   0.33333333  0.83333333  0.47108954
   0.50577987  0.73844027  0.58207866
   0.75577987  0.73844027  0.58207866
Direct configuration=    12
   0.49455339  0.26089322  0.59007797
   0.99455339  0.26089322  0.59007797
   0.24455339  0.26089322  0.59007797
   0.74455339  0.26089322  0.59007797
   0.00574976  0.98850049  0.58984247
   0.25574976  0.98850049  0.58984247
   0.50574976  0.98850049  0.58984247
   0.75574976  0.98850049  0.58984247
   0.66647085  0.66705830  0.52528592
   0.41647085  0.66705830  0.52528592
   0.16647085  0.66705830  0.52528592
   0.91647085  0.66705830  0.52528592
   0.00000000  0.00000000  0.41326863
   0.66613196  0.41773608  0.52628125
   0.41613196  0.41773608  0.52628125
   0.16613196  0.41773608  0.52628125
   0.91613196  0.41773608  0.52628125
   0.66692372  0.16615257  0.52713072
   0.41692372  0.16615257  0.52713072
   0.91726902  0.91546195  0.52647775
   0.16726902  0.91546195  0.52647775
   0.66726902  0.91546195  0.52647775
   0.16692372  0.16615257  0.52713072
   0.99479478  0.51041044  0.58237240
   0.24479478  0.51041044  0.58237240
   0.49479478  0.51041044  0.58237240
   0.74479478  0.51041044  0.58237240
   0.00562533  0.73874933  0.58204424
   0.25562533  0.73874933  0.58204424
   0.41726902  0.91546195  0.52647775
   0.91692372  0.16615257  0.52713072
   0.83333333  0.83333333  0.47108954
   0.58333333  0.83333333  0.47108954
   0.25000000  0.00000000  0.41326863
   0.50000000  0.00000000  0.41326863
   0.75000000  0.00000000  0.41326863
   0.00000000  0.25000000  0.41326863
   0.25000000  0.25000000  0.41326863
   0.50000000  0.25000000  0.41326863
   0.75000000  0.25000000  0.41326863
   0.00000000  0.50000000  0.41326863
   0.25000000  0.50000000  0.41326863
   0.50000000  0.50000000  0.41326863
   0.75000000  0.50000000  0.41326863
   0.00000000  0.75000000  0.41326863
   0.25000000  0.75000000  0.41326863
   0.50000000  0.75000000  0.41326863
   0.75000000  0.75000000  0.41326863
   0.08333333  0.08333333  0.47108954
   0.33333333  0.08333333  0.47108954
   0.58333333  0.08333333  0.47108954
   0.83333333  0.08333333  0.47108954
   0.08333333  0.33333333  0.47108954
   0.33333333  0.33333333  0.47108954
   0.58333333  0.33333333  0.47108954
   0.83333333  0.33333333  0.47108954
   0.08333333  0.58333333  0.47108954
   0.33333333  0.58333333  0.47108954
   0.58333333  0.58333333  0.47108954
   0.83333333  0.58333333  0.47108954
   0.08333333  0.83333333  0.47108954
   0.33333333  0.83333333  0.47108954
   0.50562533  0.73874933  0.58204424
   0.75562533  0.73874933  0.58204424
Direct configuration=    13
   0.49462581  0.26074838  0.59018736
   0.99462581  0.26074838  0.59018736
   0.24462581  0.26074838  0.59018736
   0.74462581  0.26074838  0.59018736
   0.00580037  0.98839927  0.59024930
   0.25580037  0.98839927  0.59024930