Automatically generated mesh
       4
Reciprocal lattice
    0.00000000000000    0.00000000000000    0.00000000000000             1
    0.33333333333334    0.00000000000000    0.00000000000000             4
    0.00000000000000    0.33333333333334    0.00000000000000             2
   -0.33333333333333    0.33333333333334    0.00000000000000             2
Tetrahedra
        12    0.01851851851852
         2         3         3         4         4
         4         2         3         4         4
         4         2         2         3         4
         4         3         3         3         4
         4         2         3         3         4
         4         1         2         2         3
         4         1         2         2         2
         4         1         2         3         3
         4         1         1         2         3
         2         1         1         2         2
        12         2         2         2         4
         6         2         2         4         4
