       N       E                     dE             d eps       ncg     rms          rms(c)
DAV:   1     0.805025111690E+04    0.80503E+04   -0.66204E+05  6320   0.139E+03
DAV:   2     0.116891020264E+03   -0.79334E+04   -0.77619E+04  5376   0.463E+02
DAV:   3    -0.217231450351E+03   -0.33412E+03   -0.32973E+03  5584   0.116E+02
DAV:   4    -0.222254145100E+03   -0.50227E+01   -0.50157E+01  5312   0.143E+01
DAV:   5    -0.222476990414E+03   -0.22285E+00   -0.22277E+00  6920   0.262E+00
DAV:   6    -0.222482855752E+03   -0.58653E-02   -0.58651E-02  5432   0.428E-01
DAV:   7    -0.222483255508E+03   -0.39976E-03   -0.39974E-03  7424   0.103E-01
DAV:   8    -0.222483262712E+03   -0.72040E-05   -0.72036E-05  3448   0.951E-03
   1 F= -.25118664E+03 E0= -.25118664E+03  d E =0.000000E+00
