 vasp.6.5.1 10Mar25 (build Mar 29 2026 21:54:56) complex                         
 executed on             LinuxGNU date 2026.04.01  09:02:21
 running   16 mpi-ranks, with    1 threads/rank, on    1 nodes
 distrk:  each k-point on   16 cores,    1 groups
 distr:  one band on NCORE=   4 cores,    4 groups


--------------------------------------------------------------------------------------------------------


 INCAR:
   SYSTEM = 50% Au d-band
   ENCUT = 400
   EDIFF = 1E-5
   ISMEAR = -5
   LREAL = Auto
   PREC = Normal
   ALGO = Normal
   NSW = 0
   IBRION = -1
   IVDW = 12
   ISPIN = 1
   LORBIT = 11
   NEDOS = 3001
   EMIN = -10
   EMAX = 5
   NCORE = 4
   LWAVE = .FALSE.
   LCHARG = .FALSE.
   ICHARG = 11

 POTCAR:    PAW_PBE Au 04Oct2007                  
 POTCAR:    PAW_PBE Cu_pv 06Sep2000               
 POTCAR:    PAW_PBE Au 04Oct2007                  
   SHA256 =  d0044ae04e2bdce24051b198fc5c053d722a5bc6fe3c3b100514a13fc5d2db88 Au/POTCAR             
   COPYR  = (c) Copyright 04Oct2007 Georg Kresse                                                    
   COPYR  = This file is part of the software VASP. Any use, copying, and all other rights are regul
   COPYR  = If you do not have a valid VASP license, you may not use, copy or distribute this file. 
   VRHFIN =Au: s1d10                                                                                
   LEXCH  = PE                                                                                      
   EATOM  =   926.0867 eV,   68.0654 Ry                                                             
                                                                                                    
   TITEL  = PAW_PBE Au 04Oct2007                                                                    
   LULTRA =        F    use ultrasoft PP ?                                                          
   IUNSCR =        1    unscreen: 0-lin 1-nonlin 2-no                                               
   RPACOR =    2.330    partial core radius                                                         
   POMASS =  196.966; ZVAL   =   11.000    mass and valenz                                          
   RCORE  =    2.500    outmost cutoff radius                                                       
   RWIGS  =    2.840; RWIGS  =    1.503    wigner-seitz radius (au A)                               
   ENMAX  =  229.943; ENMIN  =  172.457 eV                                                          
   ICORE  =        3    local potential                                                             
   LCOR   =        T    correct aug charges                                                         
   LPAW   =        T    paw PP                                                                      
   EAUG   =  356.670                                                                                
   DEXC   =    0.000                                                                                
   RMAX   =    2.562    core radius for proj-oper                                                   
   RAUG   =    1.300    factor for augmentation sphere                                              
   RDEP   =    2.598    radius for radial grids                                                     
   RDEPT  =    2.193    core radius for aug-charge                                                  
                                                                                                    
   Atomic configuration                                                                             
   16 entries                                                                                       
     n  l   j            E        occ.                                                              
     1  0  0.50    -80748.5001   2.0000                                                             
     2  0  0.50    -14244.7466   2.0000                                                             
     2  1  1.50    -12310.9591   6.0000                                                             
     3  0  0.50     -3362.1768   2.0000                                                             
     3  1  1.50     -2801.5463   6.0000                                                             
     3  2  2.50     -2203.8206  10.0000                                                             
     4  0  0.50      -729.8168   2.0000                                                             
     4  1  1.50      -546.0527   6.0000                                                             
     4  2  2.50      -325.7302  10.0000                                                             
     4  3  3.50       -81.1472  14.0000                                                             
     5  0  0.50      -108.3201   2.0000                                                             
     5  1  1.50       -59.7479   6.0000                                                             
     5  2  2.50        -6.8783  10.0000                                                             
     6  0  0.50        -5.7602   1.0000                                                             
     6  1  1.50        -6.8029   0.0000                                                             
     5  3  2.50        -1.3606   0.0000                                                             
   Description                                                                                      
     l       E           TYP  RCUT    TYP  RCUT                                                     
     2     -6.8782861     23  2.500                                                                 
     2     -8.2388687     23  2.500                                                                 
     0     -5.7601759     23  2.500                                                                 
     0     -0.8493231     23  2.500                                                                 
     1     -2.7211652     23  2.500                                                                 
     1     27.2116520     23  2.500                                                                 
     3     -1.3605826     23  2.500                                                                 
  local pseudopotential read in
  partial core-charges read in
  partial kinetic energy density read in
  atomic valenz-charges read in
  non local Contribution for L=           2  read in
    real space projection operators read in
  non local Contribution for L=           2  read in
    real space projection operators read in
  non local Contribution for L=           0  read in
    real space projection operators read in
  non local Contribution for L=           0  read in
    real space projection operators read in
  non local Contribution for L=           1  read in
    real space projection operators read in
  non local Contribution for L=           1  read in
    real space projection operators read in
    PAW grid and wavefunctions read in

   number of l-projection  operators is LMAX  =           6
   number of lm-projection operators is LMMAX =          18

 POTCAR:    PAW_PBE Cu_pv 06Sep2000               
   SHA256 =  cb7b504e2ea725fe1f25c85a9ac77d4012ce94cd394135b722c4e25ec297f1cb Cu_pv/POTCAR          
   COPYR  = (c) Copyright 06Sep2000 Georg Kresse                                                    
   COPYR  = This file is part of the software VASP. Any use, copying, and all other rights are regul
   COPYR  = If you do not have a valid VASP license, you may not use, copy or distribute this file. 
   VRHFIN =Cu: d10 p1                                                                               
   LEXCH  = PE                                                                                      
   EATOM  =  4120.1201 eV,  302.8203 Ry                                                             
                                                                                                    
   TITEL  = PAW_PBE Cu_pv 06Sep2000                                                                 
   LULTRA =        F    use ultrasoft PP ?                                                          
   IUNSCR =        1    unscreen: 0-lin 1-nonlin 2-no                                               
   RPACOR =    1.500    partial core radius                                                         
   POMASS =   63.546; ZVAL   =   17.000    mass and valenz                                          
   RCORE  =    2.000    outmost cutoff radius                                                       
   RWIGS  =    2.000; RWIGS  =    1.058    wigner-seitz radius (au A)                               
   ENMAX  =  368.648; ENMIN  =  276.486 eV                                                          
   RCLOC  =    1.304    cutoff for local pot                                                        
   LCOR   =        T    correct aug charges                                                         
   LPAW   =        T    paw PP                                                                      
   EAUG   =  758.233                                                                                
   DEXC   =    0.000                                                                                
   RMAX   =    2.046    core radius for proj-oper                                                   
   RAUG   =    1.300    factor for augmentation sphere                                              
   RDEP   =    2.025    radius for radial grids                                                     
   RDEPT  =    1.558    core radius for aug-charge                                                  
                                                                                                    
   Atomic configuration                                                                             
    8 entries                                                                                       
     n  l   j            E        occ.                                                              
     1  0  0.50     -8850.2467   2.0000                                                             
     2  0  0.50     -1062.3498   2.0000                                                             
     2  1  1.50      -916.8226   6.0000                                                             
     3  0  0.50      -114.6929   2.0000                                                             
     3  1  1.50       -72.1325   6.0000                                                             
     3  2  2.50        -5.0394  10.0000                                                             
     4  0  0.50        -4.6097   1.0000                                                             
     4  3  2.50        -1.3606   0.0000                                                             
   Description                                                                                      
     l       E           TYP  RCUT    TYP  RCUT                                                     
     1    -72.1324777     23  1.700                                                                 
     1     -1.3605826     23  1.700                                                                 
     2     -5.0393776     23  2.000                                                                 
     2     -6.3999602     23  2.000                                                                 
     0     -4.6097062     23  1.800                                                                 
     0     14.1620818     23  1.800                                                                 
  local pseudopotential read in
  partial core-charges read in
  partial kinetic energy density read in
  atomic valenz-charges read in
  non local Contribution for L=           1  read in
    real space projection operators read in
  non local Contribution for L=           1  read in
    real space projection operators read in
  non local Contribution for L=           2  read in
    real space projection operators read in
  non local Contribution for L=           2  read in
    real space projection operators read in
  non local Contribution for L=           0  read in
    real space projection operators read in
  non local Contribution for L=           0  read in
    real space projection operators read in
    PAW grid and wavefunctions read in

   number of l-projection  operators is LMAX  =           6
   number of lm-projection operators is LMMAX =          18

 Optimization of the real space projectors (new method)

 maximal supplied QI-value         = 15.12
 optimisation between [QCUT,QGAM] = [ 10.13, 20.41] = [ 28.73,116.64] Ry 
 Optimized for a Real-space Cutoff    1.51 Angstroem

   l    n(q)    QCUT    max X(q) W(low)/X(q) W(high)/X(q)  e(spline) 
   2      8    10.129    60.898    0.46E-03    0.46E-03    0.14E-06
   2      8    10.129    58.894    0.47E-03    0.47E-03    0.14E-06
   0      9    10.129   109.617    0.16E-03    0.11E-03    0.54E-07
   0      9    10.129    75.026    0.15E-03    0.11E-03    0.52E-07
   1      9    10.129    16.344    0.96E-04    0.15E-03    0.14E-06
   1      9    10.129    10.160    0.81E-04    0.12E-03    0.11E-06
 Optimization of the real space projectors (new method)

 maximal supplied QI-value         = 18.90
 optimisation between [QCUT,QGAM] = [ 10.20, 20.41] = [ 29.16,116.64] Ry 
 Optimized for a Real-space Cutoff    1.26 Angstroem

   l    n(q)    QCUT    max X(q) W(low)/X(q) W(high)/X(q)  e(spline) 
   1      7    10.205     3.172    0.20E-03    0.15E-04    0.13E-06
   1      7    10.205     4.083    0.34E-03    0.11E-03    0.24E-06
   2      7    10.205    65.342    0.26E-03    0.63E-03    0.23E-06
   2      7    10.205    61.381    0.27E-03    0.64E-03    0.23E-06
   0      8    10.205    65.742    0.10E-03    0.19E-03    0.36E-07
   0      8    10.205    30.431    0.85E-04    0.16E-03    0.33E-07
  PAW_PBE Au 04Oct2007                  :
 energy of atom  1       EATOM= -926.0867
 kinetic energy error for atom=    0.0062 (will be added to EATOM!!)
  PAW_PBE Cu_pv 06Sep2000               :
 energy of atom  2       EATOM=-4120.1201
 kinetic energy error for atom=    0.0996 (will be added to EATOM!!)


 POSCAR: 50% Au Cu(111) slab
  positions in direct lattice
  velocities in cartesian coordinates
 IVDW         = 12
 VDW_S6       =    1.0000
 VDW_S8       =    0.7875
 VDW_A1       =    0.4289
 VDW_A2       =    4.4407
 VDW_RADIUS   =   50.2022 A
 VDW_CNRADIUS =   21.1671 A


 exchange-correlation table for PE
   RHO(1)=    0.500       N(1)  =     2000
   RHO(2)=  100.500       N(2)  =     4000



--------------------------------------------------------------------------------------------------------


 ion  position               nearest neighbor table
   1  0.494  0.263  0.590-  26 2.56  25 2.56   3 2.57   4 2.57  15 2.69  18 2.76  19 2.76   7 2.78
                             8 2.78
   2  0.994  0.263  0.590-  24 2.56  27 2.56   3 2.57   4 2.57  17 2.69  23 2.76  31 2.76   5 2.78
                             6 2.78
   3  0.244  0.263  0.590-  25 2.56  24 2.56   1 2.57   2 2.57  16 2.69  19 2.76  23 2.76   6 2.78
                             7 2.78
   4  0.744  0.263  0.590-  27 2.56  26 2.56   1 2.57   2 2.57  14 2.69  31 2.76  18 2.76   8 2.78
                             5 2.78
   5  0.007  0.986  0.590-  29 2.56  28 2.56   6 2.57   8 2.57  21 2.72  20 2.72   2 2.78   4 2.78
                            31 2.80
   6  0.257  0.986  0.590-  63 2.56  29 2.56   5 2.57   7 2.57  30 2.72  21 2.72   3 2.78   2 2.78
                            23 2.80
   7  0.507  0.986  0.590-  64 2.56  63 2.56   6 2.57   8 2.57  22 2.72  30 2.72   1 2.78   3 2.78
                            19 2.80
   8  0.757  0.986  0.590-  28 2.56  64 2.56   5 2.57   7 2.57  20 2.72  22 2.72   4 2.78   1 2.78
                            18 2.80
   9  0.667  0.667  0.526-  33 2.48  59 2.48  60 2.48  27 2.50  63 2.52  64 2.52
  10  0.417  0.667  0.526-  62 2.48  58 2.48  59 2.48  26 2.50  29 2.52  63 2.52
  11  0.167  0.667  0.526-  61 2.48  57 2.48  58 2.48  25 2.50  28 2.52  29 2.52
  12  0.917  0.667  0.526-  32 2.48  60 2.48  57 2.48  24 2.50  64 2.52  28 2.52
  13  0.000  0.000  0.413-
  14  0.666  0.418  0.526-  59 2.48  55 2.49  56 2.49   4 2.69
  15  0.416  0.418  0.526-  58 2.48  54 2.49  55 2.49   1 2.69
  16  0.166  0.418  0.526-  57 2.48  53 2.49  54 2.49   3 2.69
  17  0.916  0.418  0.526-  60 2.48  56 2.49  53 2.49   2 2.69
  18  0.667  0.166  0.527-  51 2.51  52 2.51  55 2.51   1 2.76   4 2.76   8 2.80
  19  0.417  0.166  0.527-  50 2.51  51 2.51  54 2.51   3 2.76   1 2.76   7 2.80
  20  0.917  0.915  0.526-  32 2.48  61 2.48  52 2.49   8 2.72   5 2.72
  21  0.167  0.915  0.526-  61 2.48  62 2.48  49 2.49   5 2.72   6 2.72
  22  0.667  0.915  0.526-  32 2.48  33 2.48  51 2.49   7 2.72   8 2.72
  23  0.167  0.166  0.527-  49 2.51  50 2.51  53 2.51   2 2.76   3 2.76   6 2.80
  24  0.995  0.510  0.583-  64 2.41  28 2.41  12 2.50   2 2.56   3 2.56
  25  0.245  0.510  0.583-  28 2.41  29 2.41  11 2.50   3 2.56   1 2.56
  26  0.495  0.510  0.583-  29 2.41  63 2.41  10 2.50   1 2.56   4 2.56
  27  0.745  0.510  0.583-  63 2.41  64 2.41   9 2.50   4 2.56   2 2.56
  28  0.006  0.739  0.583-  25 2.41  24 2.41  11 2.52  12 2.52   8 2.56   5 2.56
  29  0.256  0.739  0.583-  26 2.41  25 2.41  10 2.52  11 2.52   5 2.56   6 2.56
  30  0.417  0.915  0.526-  33 2.48  62 2.48  50 2.49   6 2.72   7 2.72
  31  0.917  0.166  0.527-  52 2.51  49 2.51  56 2.51   4 2.76   2 2.76   5 2.80
  32  0.833  0.833  0.471-  12 2.48  20 2.48  22 2.48
  33  0.583  0.833  0.471-   9 2.48  22 2.48  30 2.48
  34  0.250  0.000  0.413-
  35  0.500  0.000  0.413-
  36  0.750  0.000  0.413-
  37  0.000  0.250  0.413-
  38  0.250  0.250  0.413-
  39  0.500  0.250  0.413-
  40  0.750  0.250  0.413-
  41  0.000  0.500  0.413-
  42  0.250  0.500  0.413-
  43  0.500  0.500  0.413-
  44  0.750  0.500  0.413-
  45  0.000  0.750  0.413-
  46  0.250  0.750  0.413-
  47  0.500  0.750  0.413-
  48  0.750  0.750  0.413-
  49  0.083  0.083  0.471-  21 2.49  23 2.51  31 2.51
  50  0.333  0.083  0.471-  30 2.49  19 2.51  23 2.51
  51  0.583  0.083  0.471-  22 2.49  18 2.51  19 2.51
  52  0.833  0.083  0.471-  20 2.49  31 2.51  18 2.51
  53  0.083  0.333  0.471-  16 2.49  17 2.49  23 2.51
  54  0.333  0.333  0.471-  15 2.49  16 2.49  19 2.51
  55  0.583  0.333  0.471-  14 2.49  15 2.49  18 2.51
  56  0.833  0.333  0.471-  17 2.49  14 2.49  31 2.51
  57  0.083  0.583  0.471-  11 2.48  12 2.48  16 2.48
  58  0.333  0.583  0.471-  10 2.48  11 2.48  15 2.48
  59  0.583  0.583  0.471-   9 2.48  10 2.48  14 2.48
  60  0.833  0.583  0.471-  12 2.48   9 2.48  17 2.48
  61  0.083  0.833  0.471-  11 2.48  20 2.48  21 2.48
  62  0.333  0.833  0.471-  10 2.48  21 2.48  30 2.48
  63  0.506  0.739  0.583-  27 2.41  26 2.41   9 2.52  10 2.52   6 2.56   7 2.56
  64  0.756  0.739  0.583-  24 2.41  27 2.41  12 2.52   9 2.52   7 2.56   8 2.56

  LATTYP: Found a hexagonal cell.
 ALAT       =    10.2813325985
 C/A-ratio  =     3.5302821242
  
  Lattice vectors:
  
 A1 = (  -5.1406662992,  -8.9038952150,   0.0000000000)
 A2 = (  10.2813325985,   0.0000000000,   0.0000000000)
 A3 = (   0.0000000000,   0.0000000000,  36.2960046855)


Analysis of symmetry for initial positions (statically):
=====================================================================
 Subroutine PRICEL returns following result:
 
  LATTYP: Found a simple orthorhombic cell.
 ALAT       =     2.5703331496
 B/A-ratio  =     3.4641016151
 C/A-ratio  =    14.1211284969
  
  Lattice vectors:
  
 A1 = (   2.5703331496,   0.0000000000,   0.0000000000)
 A2 = (   0.0000000000,   8.9038952150,   0.0000000000)
 A3 = (   0.0000000000,   0.0000000000,  36.2960046855)
 
   4 primitive cells build up your supercell.
 

 Routine SETGRP: Setting up the symmetry group for a 
 hexagonal supercell.


 Subroutine GETGRP returns: Found  2 space group operations
 (whereof  2 operations were pure point group operations)
 out of a pool of 24 trial point group operations.


The static configuration has the point symmetry C_1h.


Analysis of symmetry for dynamics (positions and initial velocities):
=====================================================================
 Subroutine PRICEL returns following result:
 
  LATTYP: Found a simple orthorhombic cell.
 ALAT       =     2.5703331496
 B/A-ratio  =     3.4641016151
 C/A-ratio  =    14.1211284969
  
  Lattice vectors:
  
 A1 = (   2.5703331496,   0.0000000000,   0.0000000000)
 A2 = (   0.0000000000,   8.9038952150,   0.0000000000)
 A3 = (   0.0000000000,   0.0000000000,  36.2960046855)
 
   4 primitive cells build up your supercell.
 

 Routine SETGRP: Setting up the symmetry group for a 
 hexagonal supercell.


 Subroutine GETGRP returns: Found  2 space group operations
 (whereof  2 operations were pure point group operations)
 out of a pool of 24 trial point group operations.


The dynamic configuration has the point symmetry C_1h.


Analysis of constrained symmetry for selective dynamics:
=====================================================================
 Subroutine PRICEL returns following result:
 
  LATTYP: Found a simple orthorhombic cell.
 ALAT       =     2.5703331496
 B/A-ratio  =     3.4641016151
 C/A-ratio  =    14.1211284969
  
  Lattice vectors:
  
 A1 = (   2.5703331496,   0.0000000000,   0.0000000000)
 A2 = (   0.0000000000,   8.9038952150,   0.0000000000)
 A3 = (   0.0000000000,   0.0000000000,  36.2960046855)
 
   4 primitive cells build up your supercell.
 

 Routine SETGRP: Setting up the symmetry group for a 
 hexagonal supercell.


 Subroutine GETGRP returns: Found  2 space group operations
 (whereof  2 operations were pure point group operations)
 out of a pool of 24 trial point group operations.


The constrained configuration has the point symmetry C_1h.


 Subroutine INISYM returns: Found  2 space group operations
 (whereof  2 operations are pure point group operations),
 and found     4 'primitive' translations


----------------------------------------------------------------------------------------

                                     Primitive cell                                     

  volume of cell :     830.6695

  direct lattice vectors                    reciprocal lattice vectors
     2.570333150  0.000000000  0.000000000     0.389054625 -0.000000000  0.000000000
     0.000000000  8.903895215  0.000000000     0.000000000  0.112310396  0.000000000
     0.000000000  0.000000000 36.296004686     0.000000000  0.000000000  0.027551242

  length of vectors
     2.570333150  8.903895215 36.296004686     0.389054625  0.112310396  0.027551242

  position of ions in fractional coordinates (direct lattice)
     0.500000000  0.262964312  0.589877639
     0.000000000  0.985714876  0.589929055
     1.000000000  0.666686254  0.525733849
     0.000000000  0.000000000  0.413268626
     0.500000000  0.418086096  0.526200939
     1.000000000  0.165997990  0.526767372
     0.500000000  0.915150653  0.526030536
     1.000000000  0.510428719  0.582830422
     0.500000000  0.738744100  0.582703051
     0.000000000  0.833333333  0.471089542
     0.500000000  0.250000000  0.413268626
     0.000000000  0.500000000  0.413268626
     0.500000000  0.750000000  0.413268626
     0.500000000  0.083333333  0.471089542
     0.000000000  0.333333333  0.471089542
     0.500000000  0.583333333  0.471089542

  ion indices of the primitive-cell ions
   primitive index   ion index
                 1           1
                 2           7
                 3          10
                 4          35
                 5          15
                 6          19
                 7          30
                 8          26
                 9          63
                10          33
                11          39
                12          43
                13          47
                14          51
                15          55
                16          59

----------------------------------------------------------------------------------------



 KPOINTS: Gamma-centered 3x3x1                    

Automatic generation of k-mesh.
 Grid dimensions read from file:
 generate k-points for:    3    3    1

 Generating k-lattice:

  Cartesian coordinates                     Fractional coordinates (reciprocal lattice)
     0.032421219 -0.018718399  0.000000000     0.333333333 -0.000000000  0.000000000
     0.000000000  0.037436799  0.000000000     0.000000000  0.333333333  0.000000000
     0.000000000  0.000000000  0.027551242     0.000000000  0.000000000  1.000000000

  Length of vectors
     0.037436799  0.037436799  0.027551242

  Shift w.r.t. Gamma in fractional coordinates (k-lattice)
     0.000000000  0.000000000  0.000000000

 TETIRR: Found     12 inequivalent tetrahedra from       54
 
 Subroutine IBZKPT returns following result:
 ===========================================
 
 Found      4 irreducible k-points:
 
 Following reciprocal coordinates:
            Coordinates               Weight
  0.000000  0.000000  0.000000      1.000000
  0.333333  0.000000  0.000000      4.000000
  0.000000  0.333333  0.000000      2.000000
 -0.333333  0.333333  0.000000      2.000000
 
 Following cartesian coordinates:
            Coordinates               Weight
  0.000000  0.000000  0.000000      1.000000
  0.032421 -0.018718  0.000000      4.000000
  0.000000  0.037437  0.000000      2.000000
 -0.032421  0.056155  0.000000      2.000000
 


--------------------------------------------------------------------------------------------------------




 Dimension of arrays:
   k-points           NKPTS =      4   k-points in BZ     NKDIM =      4   number of bands    NBANDS=    624
   number of dos      NEDOS =   3001   number of ions     NIONS =     64
   non local maximal  LDIM  =      6   non local SUM 2l+1 LMDIM =     18
   total plane-waves  NPLWV = 450000
   max r-space proj   IRMAX =   1997   max aug-charges    IRDMAX=   8481
   dimension x,y,z NGX =    50 NGY =   50 NGZ =  180
   dimension x,y,z NGXF=   100 NGYF=  100 NGZF=  360
   support grid    NGXF=   100 NGYF=  100 NGZF=  360
   ions per type =               8  56
   NGX,Y,Z   is equivalent  to a cutoff of   8.08,  8.08,  8.24 a.u.
   NGXF,Y,Z  is equivalent  to a cutoff of  16.17, 16.17, 16.49 a.u.

 SYSTEM =  50% Au d-band                           
 POSCAR =  50% Au Cu(111) slab                     

 Startparameter for this run:
   NWRITE =      2    write-flag & timer
   PREC   = normal    normal or accurate (medium, high low for compatibility)
   ISTART =      0    job   : 0-new  1-cont  2-samecut
   ICHARG =     11    charge: 1-file 2-atom 10-const
   ISPIN  =      1    spin polarized calculation?
   LNONCOLLINEAR =      F non collinear calculations
   LSORBIT =      F    spin-orbit coupling
   INIWAV =      1    electr: 0-lowe 1-rand  2-diag
   LASPH  =      F    aspherical Exc in radial PAW
 Electronic Relaxation 1
   ENCUT  =  400.0 eV  29.40 Ry    5.42 a.u.  16.77 16.77 59.19*2*pi/ulx,y,z
   ENINI  =  400.0     initial cutoff
   ENAUG  =  758.2 eV  augmentation charge cutoff
   NELM   =     60;   NELMIN=  2; NELMDL= -5     # of ELM steps 
   EDIFF  = 0.1E-04   stopping-criterion for ELM
   LREAL  =      T    real-space projection
   NLSPLINE    = F    spline interpolate recip. space projectors
   LCOMPAT=      F    compatible to vasp.4.4
   GGA_COMPAT  = T    GGA compatible to vasp.4.4-vasp.4.6
   LMAXPAW     = -100 max onsite density
   LMAXMIX     =    2 max onsite mixed and CHGCAR
   VOSKOWN=      0    Vosko Wilk Nusair interpolation
   ROPT   =   -0.00050  -0.00050
 Ionic relaxation
   EDIFFG = 0.1E-03   stopping-criterion for IOM
   NSW    =      0    number of steps for IOM
   NBLOCK =      1;   KBLOCK =      1    inner block; outer block 
   IBRION =     -1    ionic relax: 0-MD 1-quasi-New 2-CG
   NFREE  =      0    steps in history (QN), initial steepest desc. (CG)
   ISIF   =      2    stress and relaxation
   IWAVPR =     10    prediction:  0-non 1-charg 2-wave 3-comb
   ISYM   =      2    0-nonsym 1-usesym 2-fastsym
   LCORR  =      T    Harris-Foulkes like correction to forces

   POTIM  = 0.5000    time-step for ionic-motion
   TEIN   =    0.0    initial temperature
   TEBEG  =    0.0;   TEEND  =   0.0 temperature during run
   SMASS  =  -3.00    Nose mass-parameter (am)
   estimated Nose-frequenzy (Omega)   =  0.10E-29 period in steps = 0.13E+47 mass=  -0.242E-26a.u.
   SCALEE = 1.0000    scale energy and forces
   NPACO  =    256;   APACO  = 10.0  distance and # of slots for P.C.
   PSTRESS=    0.0 pullay stress

  Mass of Ions in am
   POMASS = 196.97 63.55
  Ionic Valenz
   ZVAL   =  11.00 17.00
  Atomic Wigner-Seitz radii
   RWIGS  =  -1.00 -1.00
  virtual crystal weights 
   VCA    =   1.00  1.00
   NELECT =    1040.0000    total number of electrons
   NUPDOWN=      -1.0000    fix difference up-down

 DOS related values:
   EMIN   = -10.00;   EMAX   =  5.00  energy-range for DOS
   EFERMI =   0.00;   METHOD = LEGACY      
   ISMEAR =    -5;   SIGMA  =   0.20  broadening in eV -4-tet -1-fermi 0-gaus
   EFERMI_NEDOS =   21; number of points for ismear=-14 and -15

 Electronic relaxation 2 (details)
   IALGO  =     38    algorithm
   LDIAG  =      T    sub-space diagonalisation (order eigenvalues)
   LSUBROT=      F    optimize rotation matrix (better conditioning)
   LROBUST=      F    robust break criterion during scf (extrapolated energy error)
   ISEARCH=      0    line search for conjugate gradient (0, 1=use gradient)
   TURBO    =      0    0=normal 1=particle mesh
   IRESTART =      0    0=no restart 2=restart with 2 vectors
   NREBOOT  =      0    no. of reboots
   NMIN     =      0    reboot dimension
   EREF     =   0.00    reference energy to select bands
   IMIX   =      4    mixing-type and parameters
     AMIX     =   0.40;   BMIX     =  1.00
     AMIX_MAG =   1.60;   BMIX_MAG =  1.00
     AMIN     =   0.10
     WC   =   100.;   INIMIX=   1;  MIXPRE=   1;  MAXMIX= -45

 Intra band minimization:
   WEIMIN = 0.0000     energy-eigenvalue tresh-hold
   EBREAK =  0.40E-08  absolut break condition
   DEPER  =   0.30     relativ break condition  

   TIME   =   0.40     timestep for ELM

  volume/ion in A,a.u.               =      51.92       350.35
  Fermi-wavevector in a.u.,A,eV,Ry     =   1.111535  2.100497 16.810138  1.235510
  Thomas-Fermi vector in A             =   2.248099

 Write flags
   LWAVE        =      F    write WAVECAR
   LDOWNSAMPLE  =      F    k-point downsampling of WAVECAR
   LCHARG       =      F    write CHGCAR
   LVTOT        =      F    write LOCPOT, total local potential
   LVHAR        =      F    write LOCPOT, Hartree potential only
   WRT_POTENTIAL= false  ! write potential to hdf5 file
   LELF         =      F    write electronic localiz. function (ELF)
   LORBIT       =     11    0 simple, 1 ext, 2 COOP (PROOUT), +10 PAW based schemes


 Python interface
   PLUGINS active      =      F    recompile with -DPLUGINS to activate

 Dipole corrections
   LMONO      =      F    monopole corrections only (constant potential shift)
   LDIPOL     =      F    correct potential (dipole corrections)
   IDIPOL     =      0    1-x, 2-y, 3-z, 4-all directions 
   EPSILON    =  1.0000000 bulk dielectric constant
   LVACPOTAV  =      F  vacuum potentials using an averaging scheme for the charge density
   VACPOTFLAT =  0.1000000 required flatness to determine vacuum potential

Coulomb truncation method
  LTRUNCATE          =      F  Coulomb kernel truncation to be used


 Exchange correlation treatment:
   GGA     = PE    functional components
   XC_C    = 1    coefficients multiplying the functional components
   LIBXC   =     F    Libxc                    
   VOSKOWN =     0    Vosko Wilk Nusair interpolation
   LHFCALC =     F    Hartree Fock is set to
   LHFONE  =     F    Hartree Fock one center treatment
   AEXX    =    0.0000 exact exchange contribution

 Parameters of functionals:
   PE:
     No parameter

 Van der Waals corrections
   IVDW    =    12    specifies the selected vdW correction

 Linear response parameters
   LEPSILON=     F    determine dielectric tensor
   LRPA    =     F    only Hartree local field effects (RPA)
   LNABLA  =     F    use nabla operator in PAW spheres
   LVEL    =     F    velocity operator in full k-point grid
   CSHIFT  =0.1000    complex shift for real part using Kramers Kronig
   OMEGAMAX=  -1.0    maximum frequency
   DEG_THRESHOLD= 0.2000000E-02 threshold for treating states as degnerate
   RTIME   =   -0.100 relaxation time in fs
  (WPLASMAI=    0.000 imaginary part of plasma frequency in eV, 0.658/RTIME)
   DFIELD  = 0.0000000 0.0000000 0.0000000 field for delta impulse in time

  Optional k-point grid parameters
   LKPOINTS_OPT  =     F    use optional k-point grid
   KPOINTS_OPT_MODE=     1    mode for optional k-point grid

 Orbital magnetization related:
   ORBITALMAG=     F  switch on orbital magnetization
   LCHIMAG   =     F  perturbation theory with respect to B field
   DQ        =  0.001000  dq finite difference perturbation B field
   LLRAUG    =     F  two centre corrections for induced B field
   LBONE     =     F  B-component reconstruction in AE one-centre
   LVGVCALC  =     T  calculate vGv susceptibility
   LVGVAPPL  =     F  apply vGv susceptibility instead of pGv for G=0

 Random number generation:
   RANDOM_GENERATOR = DEFAULT
   PCG_SEED         = not used


--------------------------------------------------------------------------------------------------------


 Static calculation
 charge density and potential remain constant during run
 non-spin polarized calculation
 Variant of blocked Davidson
 Davidson routine will perform the subspace rotation
 perform sub-space diagonalisation
    after iterative eigenvector-optimisation
 no mixing
 using additional bands          104
 real space projection scheme for non local part
 use partial core corrections
 calculate Harris-corrections to forces   (improved forces if not selfconsistent)
 use gradient corrections 
 WARNING: stress and forces are not correct
  (second derivative of E(xc) not defined)
 use of overlap-Matrix (Vanderbilt PP)
 Fermi weights with tetrahedron method with Bloechl corrections


--------------------------------------------------------------------------------------------------------


  energy-cutoff  :      400.00
  volume of cell :     3322.68
      direct lattice vectors                 reciprocal lattice vectors
    10.281332598  0.000000000  0.000000000     0.097263656 -0.056155198  0.000000000
     5.140666299  8.903895215  0.000000000     0.000000000  0.112310396  0.000000000
     0.000000000  0.000000000 36.296004686     0.000000000  0.000000000  0.027551242

  length of vectors
    10.281332598 10.281332598 36.296004686     0.112310396  0.112310396  0.027551242



 k-points in units of 2pi/SCALE and weight: Gamma-centered 3x3x1                    
   0.00000000  0.00000000  0.00000000       0.111
   0.03242122 -0.01871840  0.00000000       0.444
   0.00000000  0.03743680  0.00000000       0.222
  -0.03242122  0.05615520  0.00000000       0.222

 k-points in reciprocal lattice and weights: Gamma-centered 3x3x1                    
   0.00000000  0.00000000  0.00000000       0.111
   0.33333333  0.00000000  0.00000000       0.444
   0.00000000  0.33333333  0.00000000       0.222
  -0.33333333  0.33333333  0.00000000       0.222

 position of ions in fractional coordinates (direct lattice) 
   0.49351784  0.26296431  0.58987764
   0.99351784  0.26296431  0.58987764
   0.24351784  0.26296431  0.58987764
   0.74351784  0.26296431  0.58987764
   0.00714256  0.98571488  0.58992905
   0.25714256  0.98571488  0.58992905
   0.50714256  0.98571488  0.58992905
   0.75714256  0.98571488  0.58992905
   0.66665687  0.66668625  0.52573385
   0.41665687  0.66668625  0.52573385
   0.16665687  0.66668625  0.52573385
   0.91665687  0.66668625  0.52573385
   0.00000000  0.00000000  0.41326863
   0.66595695  0.41808610  0.52620094
   0.41595695  0.41808610  0.52620094
   0.16595695  0.41808610  0.52620094
   0.91595695  0.41808610  0.52620094
   0.66700101  0.16599799  0.52676737
   0.41700101  0.16599799  0.52676737
   0.91742467  0.91515065  0.52603054
   0.16742467  0.91515065  0.52603054
   0.66742467  0.91515065  0.52603054
   0.16700101  0.16599799  0.52676737
   0.99478564  0.51042872  0.58283042
   0.24478564  0.51042872  0.58283042
   0.49478564  0.51042872  0.58283042
   0.74478564  0.51042872  0.58283042
   0.00562795  0.73874410  0.58270305
   0.25562795  0.73874410  0.58270305
   0.41742467  0.91515065  0.52603054
   0.91700101  0.16599799  0.52676737
   0.83333333  0.83333333  0.47108954
   0.58333333  0.83333333  0.47108954
   0.25000000  0.00000000  0.41326863
   0.50000000  0.00000000  0.41326863
   0.75000000  0.00000000  0.41326863
   0.00000000  0.25000000  0.41326863
   0.25000000  0.25000000  0.41326863
   0.50000000  0.25000000  0.41326863
   0.75000000  0.25000000  0.41326863
   0.00000000  0.50000000  0.41326863
   0.25000000  0.50000000  0.41326863
   0.50000000  0.50000000  0.41326863
   0.75000000  0.50000000  0.41326863
   0.00000000  0.75000000  0.41326863
   0.25000000  0.75000000  0.41326863
   0.50000000  0.75000000  0.41326863
   0.75000000  0.75000000  0.41326863
   0.08333333  0.08333333  0.47108954
   0.33333333  0.08333333  0.47108954
   0.58333333  0.08333333  0.47108954
   0.83333333  0.08333333  0.47108954
   0.08333333  0.33333333  0.47108954
   0.33333333  0.33333333  0.47108954
   0.58333333  0.33333333  0.47108954
   0.83333333  0.33333333  0.47108954
   0.08333333  0.58333333  0.47108954
   0.33333333  0.58333333  0.47108954
   0.58333333  0.58333333  0.47108954
   0.83333333  0.58333333  0.47108954
   0.08333333  0.83333333  0.47108954
   0.33333333  0.83333333  0.47108954
   0.50562795  0.73874410  0.58270305
   0.75562795  0.73874410  0.58270305

 position of ions in cartesian coordinates  (Angst):
   6.42583287  2.34140668 21.41020155
  11.56649917  2.34140668 21.41020155
   3.85549972  2.34140668 21.41020155
   8.99616602  2.34140668 21.41020155
   5.14066630  8.77670196 21.41206774
   7.71099945  8.77670196 21.41206774
  10.28133260  8.77670196 21.41206774
  12.85166575  8.77670196 21.41206774
  10.28133260  5.93610455 19.08203825
   7.71099945  5.93610455 19.08203825
   5.14066630  5.93610455 19.08203825
  12.85166575  5.93610455 19.08203825
   0.00000000  0.00000000 15.00000000
   8.99616602  3.72259479 19.09899177
   6.42583287  3.72259479 19.09899177
   3.85549972  3.72259479 19.09899177
  11.56649917  3.72259479 19.09899177
   7.71099945  1.47802871 19.11955101
   5.14066630  1.47802871 19.11955101
  14.13683232  8.14840552 19.09280681
   6.42583287  8.14840552 19.09280681
  11.56649917  8.14840552 19.09280681
   2.57033315  1.47802871 19.11955101
  12.85166575  4.54480383 21.15441572
   5.14066630  4.54480383 21.15441572
   7.71099945  4.54480383 21.15441572
  10.28133260  4.54480383 21.15441572
   3.85549972  6.57770005 21.14979266
   6.42583287  6.57770005 21.14979266
   8.99616602  8.14840552 19.09280681
  10.28133260  1.47802871 19.11955101
  12.85166575  7.41991268 17.09866823
  10.28133260  7.41991268 17.09866823
   2.57033315  0.00000000 15.00000000
   5.14066630  0.00000000 15.00000000
   7.71099945  0.00000000 15.00000000
   1.28516657  2.22597380 15.00000000
   3.85549972  2.22597380 15.00000000
   6.42583287  2.22597380 15.00000000
   8.99616602  2.22597380 15.00000000
   2.57033315  4.45194761 15.00000000
   5.14066630  4.45194761 15.00000000
   7.71099945  4.45194761 15.00000000
  10.28133260  4.45194761 15.00000000
   3.85549972  6.67792141 15.00000000
   6.42583287  6.67792141 15.00000000
   8.99616602  6.67792141 15.00000000
  11.56649917  6.67792141 15.00000000
   1.28516657  0.74199127 17.09866823
   3.85549972  0.74199127 17.09866823
   6.42583287  0.74199127 17.09866823
   8.99616602  0.74199127 17.09866823
   2.57033315  2.96796507 17.09866823
   5.14066630  2.96796507 17.09866823
   7.71099945  2.96796507 17.09866823
  10.28133260  2.96796507 17.09866823
   3.85549972  5.19393888 17.09866823
   6.42583287  5.19393888 17.09866823
   8.99616602  5.19393888 17.09866823
  11.56649917  5.19393888 17.09866823
   5.14066630  7.41991268 17.09866823
   7.71099945  7.41991268 17.09866823
   8.99616602  6.57770005 21.14979266
  11.56649917  6.57770005 21.14979266



--------------------------------------------------------------------------------------------------------


 k-point     1 :   0.0000 0.0000 0.0000  plane waves:   60263
 k-point     2 :   0.3333 0.0000 0.0000  plane waves:   60381
 k-point     3 :   0.0000 0.3333 0.0000  plane waves:   60381
 k-point     4 :  -0.3333 0.3333 0.0000  plane waves:   60237

 maximum and minimum number of plane-waves per node :     15116    15048

 maximum number of plane-waves:     60381
 maximum index in each direction: 
   IXMAX=   17   IYMAX=   16   IZMAX=   59
   IXMIN=  -17   IYMIN=  -17   IZMIN=  -59


 real space projection operators:
  total allocation   :      10858.50 KBytes
  max/ min on nodes  :       2845.55       2583.70


 parallel 3D FFT for wavefunctions:
    minimum data exchange during FFTs selected (reduces bandwidth)
 parallel 3D FFT for charge:
    minimum data exchange during FFTs selected (reduces bandwidth)


 total amount of memory used by VASP MPI-rank0   220400. kBytes
=======================================================================

   base                                    :      30000. kBytes
   nonlr-proj                              :       5609. kBytes
   fftplans                                :      11892. kBytes
   grid                                    :      18858. kBytes
   one-center                              :        248. kBytes
   wavefun                                 :     153793. kBytes

     INWAV:  cpu time      0.0000: real time      0.0000
 initial charge density was supplied:
 number of electron    1039.9997083 magnetization 
 keeping initial charge density in first step


--------------------------------------------------------------------------------------------------------


 Maximum index for non-local projection operator          560
 Maximum index for augmentation-charges          856 (set IRDMAX)


--------------------------------------------------------------------------------------------------------


 First call to EWALD:  gamma=   0.119
 Maximum number of real-space cells   4x   4x   1
 Maximum number of reciprocal cells   2x   2x   6

    FEWALD:  cpu time      0.0284: real time      0.0285


--------------------------------------- Ionic step        1  -------------------------------------------




--------------------------------------- Iteration      1(   1)  ---------------------------------------


    POTLOK:  cpu time      0.1615: real time      0.1624
    SETDIJ:  cpu time      0.0096: real time      0.0096
     EDDAV:  cpu time     40.4822: real time     40.6912
 BZINTS: Fermi energy:    9.641393; 1040.000000 electrons
         Band energy:-0.192941E+05;  BLOECHL correction:   -0.016189
       DOS:  cpu time      0.0508: real time      0.0509
    --------------------------------------------
      LOOP:  cpu time     40.7041: real time     40.9142

 eigenvalue-minimisations  :  6320
 total energy-change (2. order) : 0.8050251E+04  (-0.6620404E+05)
 number of electron    1039.9997083 magnetization 
 augmentation part     1039.9997083 magnetization 

 Free energy of the ion-electron system (eV)
  ---------------------------------------------------
  alpha Z        PSCENC =      2130.86679331
  Ewald energy   TEWEN  =   1828564.02006844
  -Hartree energ DENC   =  -2039123.13834343
  -exchange      EXHF   =         0.00000000
  -V(xc)+E(xc)   XCENC  =      6106.43352974
  PAW double counting   =    209736.74275472  -218200.33204703
  entropy T*S    EENTRO =         0.00000000
  eigenvalues    EBANDS =    -19294.13263544
  atomic energy  EATOM  =    238129.79099658
  Solvation  Ediel_sol  =         0.00000000
  ---------------------------------------------------
  free energy    TOTEN  =      8050.25111690 eV

  energy without entropy =     8050.25111690  energy(sigma->0) =     8050.25111690


--------------------------------------------------------------------------------------------------------




--------------------------------------- Iteration      1(   2)  ---------------------------------------


     EDDAV:  cpu time     36.4095: real time     36.5919
 BZINTS: Fermi energy:   -1.223518; 1040.000000 electrons
         Band energy:-0.272275E+05;  BLOECHL correction:   -0.049565
       DOS:  cpu time      0.0192: real time      0.0193
    --------------------------------------------
      LOOP:  cpu time     36.4287: real time     36.6112

 eigenvalue-minimisations  :  5376
 total energy-change (2. order) :-0.7933360E+04  (-0.7761867E+04)
 number of electron    1039.9997083 magnetization 
 augmentation part     1039.9997083 magnetization 

 Free energy of the ion-electron system (eV)
  ---------------------------------------------------
  alpha Z        PSCENC =      2130.86679331
  Ewald energy   TEWEN  =   1828564.02006844
  -Hartree energ DENC   =  -2039123.13834343
  -exchange      EXHF   =         0.00000000
  -V(xc)+E(xc)   XCENC  =      6106.43352974
  PAW double counting   =    209736.74275472  -218200.33204703
  entropy T*S    EENTRO =         0.00000000
  eigenvalues    EBANDS =    -27227.49273208
  atomic energy  EATOM  =    238129.79099658
  Solvation  Ediel_sol  =         0.00000000
  ---------------------------------------------------
  free energy    TOTEN  =       116.89102026 eV

  energy without entropy =      116.89102026  energy(sigma->0) =      116.89102026


--------------------------------------------------------------------------------------------------------




--------------------------------------- Iteration      1(   3)  ---------------------------------------


     EDDAV:  cpu time     39.2308: real time     39.4144
 BZINTS: Fermi energy:   -1.933070; 1040.000000 electrons
         Band energy:-0.275616E+05;  BLOECHL correction:   -0.061045
       DOS:  cpu time      0.0245: real time      0.0246
    --------------------------------------------
      LOOP:  cpu time     39.2554: real time     39.4391

 eigenvalue-minimisations  :  5584
 total energy-change (2. order) :-0.3341225E+03  (-0.3297329E+03)
 number of electron    1039.9997083 magnetization 
 augmentation part     1039.9997083 magnetization 

 Free energy of the ion-electron system (eV)
  ---------------------------------------------------
  alpha Z        PSCENC =      2130.86679331
  Ewald energy   TEWEN  =   1828564.02006844
  -Hartree energ DENC   =  -2039123.13834343
  -exchange      EXHF   =         0.00000000
  -V(xc)+E(xc)   XCENC  =      6106.43352974
  PAW double counting   =    209736.74275472  -218200.33204703
  entropy T*S    EENTRO =         0.00000000
  eigenvalues    EBANDS =    -27561.61520269
  atomic energy  EATOM  =    238129.79099658
  Solvation  Ediel_sol  =         0.00000000
  ---------------------------------------------------
  free energy    TOTEN  =      -217.23145035 eV

  energy without entropy =     -217.23145035  energy(sigma->0) =     -217.23145035


--------------------------------------------------------------------------------------------------------




--------------------------------------- Iteration      1(   4)  ---------------------------------------


     EDDAV:  cpu time     38.8867: real time     39.0749
 BZINTS: Fermi energy:   -1.942575; 1040.000000 electrons
         Band energy:-0.275666E+05;  BLOECHL correction:   -0.061583
       DOS:  cpu time      0.0265: real time      0.0266
    --------------------------------------------
      LOOP:  cpu time     38.9132: real time     39.1015

 eigenvalue-minimisations  :  5312
 total energy-change (2. order) :-0.5022695E+01  (-0.5015741E+01)
 number of electron    1039.9997083 magnetization 
 augmentation part     1039.9997083 magnetization 

 Free energy of the ion-electron system (eV)
  ---------------------------------------------------
  alpha Z        PSCENC =      2130.86679331
  Ewald energy   TEWEN  =   1828564.02006844
  -Hartree energ DENC   =  -2039123.13834343
  -exchange      EXHF   =         0.00000000
  -V(xc)+E(xc)   XCENC  =      6106.43352974
  PAW double counting   =    209736.74275472  -218200.33204703
  entropy T*S    EENTRO =         0.00000000
  eigenvalues    EBANDS =    -27566.63789744
  atomic energy  EATOM  =    238129.79099658
  Solvation  Ediel_sol  =         0.00000000
  ---------------------------------------------------
  free energy    TOTEN  =      -222.25414510 eV

  energy without entropy =     -222.25414510  energy(sigma->0) =     -222.25414510


--------------------------------------------------------------------------------------------------------




--------------------------------------- Iteration      1(   5)  ---------------------------------------


     EDDAV:  cpu time     49.5835: real time     49.8280
 BZINTS: Fermi energy:   -1.943052; 1040.000000 electrons
         Band energy:-0.275669E+05;  BLOECHL correction:   -0.061653
       DOS:  cpu time      0.0199: real time      0.0200
    --------------------------------------------
      LOOP:  cpu time     49.6034: real time     49.8480

 eigenvalue-minimisations  :  6920
 total energy-change (2. order) :-0.2228453E+00  (-0.2227675E+00)
 number of electron    1039.9997083 magnetization 
 augmentation part     1039.9997083 magnetization 

 Free energy of the ion-electron system (eV)
  ---------------------------------------------------
  alpha Z        PSCENC =      2130.86679331
  Ewald energy   TEWEN  =   1828564.02006844
  -Hartree energ DENC   =  -2039123.13834343
  -exchange      EXHF   =         0.00000000
  -V(xc)+E(xc)   XCENC  =      6106.43352974
  PAW double counting   =    209736.74275472  -218200.33204703
  entropy T*S    EENTRO =         0.00000000
  eigenvalues    EBANDS =    -27566.86074275
  atomic energy  EATOM  =    238129.79099658
  Solvation  Ediel_sol  =         0.00000000
  ---------------------------------------------------
  free energy    TOTEN  =      -222.47699041 eV

  energy without entropy =     -222.47699041  energy(sigma->0) =     -222.47699041


--------------------------------------------------------------------------------------------------------




--------------------------------------- Iteration      1(   6)  ---------------------------------------


     EDDAV:  cpu time     40.3288: real time     40.5281
 BZINTS: Fermi energy:   -1.943054; 1040.000000 electrons
         Band energy:-0.275669E+05;  BLOECHL correction:   -0.061653
       DOS:  cpu time      0.0263: real time      0.0264
    --------------------------------------------
      LOOP:  cpu time     40.3552: real time     40.5545

 eigenvalue-minimisations  :  5432
 total energy-change (2. order) :-0.5865338E-02  (-0.5865077E-02)
 number of electron    1039.9997083 magnetization 
 augmentation part     1039.9997083 magnetization 

 Free energy of the ion-electron system (eV)
  ---------------------------------------------------
  alpha Z        PSCENC =      2130.86679331
  Ewald energy   TEWEN  =   1828564.02006844
  -Hartree energ DENC   =  -2039123.13834343
  -exchange      EXHF   =         0.00000000
  -V(xc)+E(xc)   XCENC  =      6106.43352974
  PAW double counting   =    209736.74275472  -218200.33204703
  entropy T*S    EENTRO =         0.00000000
  eigenvalues    EBANDS =    -27566.86660809
  atomic energy  EATOM  =    238129.79099658
  Solvation  Ediel_sol  =         0.00000000
  ---------------------------------------------------
  free energy    TOTEN  =      -222.48285575 eV

  energy without entropy =     -222.48285575  energy(sigma->0) =     -222.48285575


--------------------------------------------------------------------------------------------------------




--------------------------------------- Iteration      1(   7)  ---------------------------------------


     EDDAV:  cpu time     51.8560: real time     52.1131
 BZINTS: Fermi energy:   -1.943054; 1040.000000 electrons
         Band energy:-0.275669E+05;  BLOECHL correction:   -0.061653
       DOS:  cpu time      0.0192: real time      0.0193
    --------------------------------------------
      LOOP:  cpu time     51.8752: real time     52.1323

 eigenvalue-minimisations  :  7424
 total energy-change (2. order) :-0.3997555E-03  (-0.3997446E-03)
 number of electron    1039.9997083 magnetization 
 augmentation part     1039.9997083 magnetization 

 Free energy of the ion-electron system (eV)
  ---------------------------------------------------
  alpha Z        PSCENC =      2130.86679331
  Ewald energy   TEWEN  =   1828564.02006844
  -Hartree energ DENC   =  -2039123.13834343
  -exchange      EXHF   =         0.00000000
  -V(xc)+E(xc)   XCENC  =      6106.43352974
  PAW double counting   =    209736.74275472  -218200.33204703
  entropy T*S    EENTRO =         0.00000000
  eigenvalues    EBANDS =    -27566.86700785
  atomic energy  EATOM  =    238129.79099658
  Solvation  Ediel_sol  =         0.00000000
  ---------------------------------------------------
  free energy    TOTEN  =      -222.48325551 eV

  energy without entropy =     -222.48325551  energy(sigma->0) =     -222.48325551


--------------------------------------------------------------------------------------------------------




--------------------------------------- Iteration      1(   8)  ---------------------------------------


     EDDAV:  cpu time     28.6451: real time     28.7862
 BZINTS: Fermi energy:   -1.943054; 1040.000000 electrons
         Band energy:-0.275669E+05;  BLOECHL correction:   -0.061653
       DOS:  cpu time      0.0263: real time      0.0264
    --------------------------------------------
      LOOP:  cpu time     28.6715: real time     28.8126

 eigenvalue-minimisations  :  3448
 total energy-change (2. order) :-0.7204013E-05  (-0.7203566E-05)
 number of electron    1039.9997083 magnetization 
 augmentation part     1039.9997083 magnetization 

 Free energy of the ion-electron system (eV)
  ---------------------------------------------------
  alpha Z        PSCENC =      2130.86679331
  Ewald energy   TEWEN  =   1828564.02006844
  -Hartree energ DENC   =  -2039123.13834343
  -exchange      EXHF   =         0.00000000
  -V(xc)+E(xc)   XCENC  =      6106.43352974
  PAW double counting   =    209736.74275472  -218200.33204703
  entropy T*S    EENTRO =         0.00000000
  eigenvalues    EBANDS =    -27566.86701505
  atomic energy  EATOM  =    238129.79099658
  Solvation  Ediel_sol  =         0.00000000
  ---------------------------------------------------
  free energy    TOTEN  =      -222.48326271 eV

  energy without entropy =     -222.48326271  energy(sigma->0) =     -222.48326271


--------------------------------------------------------------------------------------------------------




 average (electrostatic) potential at core
  the test charge radii are     1.2098  0.8297
  (the norm of the test charge is              1.0000)
       1 -75.7138       2 -75.7138       3 -75.7138       4 -75.7138       5 -75.7098
       6 -75.7098       7 -75.7098       8 -75.7098       9 -88.4106      10 -88.4106
      11 -88.4106      12 -88.4106      13 -88.0657      14 -88.3531      15 -88.3531
      16 -88.3531      17 -88.3531      18 -88.2751      19 -88.2751      20 -88.3119
      21 -88.3119      22 -88.3119      23 -88.2751      24 -88.2465      25 -88.2465
      26 -88.2465      27 -88.2465      28 -88.2541      29 -88.2541      30 -88.3119
      31 -88.2751      32 -88.3380      33 -88.3380      34 -88.0657      35 -88.0657
      36 -88.0657      37 -88.0673      38 -88.0673      39 -88.0673      40 -88.0673
      41 -88.0534      42 -88.0534      43 -88.0534      44 -88.0534      45 -88.0504
      46 -88.0504      47 -88.0504      48 -88.0504      49 -88.3190      50 -88.3190
      51 -88.3190      52 -88.3190      53 -88.3194      54 -88.3194      55 -88.3194
      56 -88.3194      57 -88.3306      58 -88.3306      59 -88.3306      60 -88.3306
      61 -88.3380      62 -88.3380      63 -88.2541      64 -88.2541



 E-fermi :  -1.9431     XC(G=0):  -3.7278     alpha+bet : -3.0937

 val. band max:       -1.9498109319   @ k =   0.0000   0.0000   0.0000
 cond. band min:      -1.9255983288   @ k =   0.0000   0.0000   0.0000
 fundamental gap:      0.0242126031
 Fermi energy:        -1.9430544301

 k-point     1 :       0.0000    0.0000    0.0000
  band No.  band energies     occupation 
      1     -71.9044      2.00000
      2     -71.8993      2.00000
      3     -71.8993      2.00000
      4     -71.8954      2.00000
      5     -71.8853      2.00000
      6     -71.8717      2.00000
      7     -71.8658      2.00000
      8     -71.8657      2.00000
      9     -71.8652      2.00000
     10     -71.8574      2.00000
     11     -71.8574      2.00000
     12     -71.8438      2.00000
     13     -71.8376      2.00000
     14     -71.8376      2.00000
     15     -71.8376      2.00000
     16     -71.8339      2.00000
     17     -71.8310      2.00000
     18     -71.8257      2.00000
     19     -71.8243      2.00000
     20     -71.8243      2.00000
     21     -71.8175      2.00000
     22     -71.8169      2.00000
     23     -71.8160      2.00000
     24     -71.8160      2.00000
     25     -71.8123      2.00000
     26     -71.8082      2.00000
     27     -71.8080      2.00000
     28     -71.8080      2.00000
     29     -71.8079      2.00000
     30     -71.8058      2.00000
     31     -71.8049      2.00000
     32     -71.8045      2.00000
     33     -71.8025      2.00000
     34     -71.8025      2.00000
     35     -71.7963      2.00000
     36     -71.7963      2.00000
     37     -71.7958      2.00000
     38     -71.7934      2.00000
     39     -71.7934      2.00000
     40     -71.7930      2.00000
     41     -71.7897      2.00000
     42     -71.7896      2.00000
     43     -71.7887      2.00000
     44     -71.7870      2.00000
     45     -71.7870      2.00000
     46     -71.7844      2.00000
     47     -71.7844      2.00000
     48     -71.7843      2.00000
     49     -71.7838      2.00000
     50     -71.7833      2.00000
     51     -71.7833      2.00000
     52     -71.7812      2.00000
     53     -71.7809      2.00000
     54     -71.7797      2.00000
     55     -71.7777      2.00000
     56     -71.7767      2.00000
     57     -71.7767      2.00000
     58     -71.7713      2.00000
     59     -71.7700      2.00000
     60     -71.7700      2.00000
     61     -71.7679      2.00000
     62     -71.7656      2.00000
     63     -71.7656      2.00000
     64     -71.7644      2.00000
     65     -71.7643      2.00000
     66     -71.7638      2.00000
     67     -71.7638      2.00000
     68     -71.7635      2.00000
     69     -71.7624      2.00000
     70     -71.7624      2.00000
     71     -71.7609      2.00000
     72     -71.7577      2.00000
     73     -71.7569      2.00000
     74     -71.7569      2.00000
     75     -71.7558      2.00000
     76     -71.7534      2.00000
     77     -71.7533      2.00000
     78     -71.7533      2.00000
     79     -71.7507      2.00000
     80     -71.7507      2.00000
     81     -71.7500      2.00000
     82     -71.7473      2.00000
     83     -71.7467      2.00000
     84     -71.7415      2.00000
     85     -71.7415      2.00000
     86     -71.7408      2.00000
     87     -71.7379      2.00000
     88     -71.7349      2.00000
     89     -71.7349      2.00000
     90     -71.7321      2.00000
     91     -71.7305      2.00000
     92     -71.7293      2.00000
     93     -71.7293      2.00000
     94     -71.7266      2.00000
     95     -71.7266      2.00000
     96     -71.7232      2.00000
     97     -71.7209      2.00000
     98     -71.7188      2.00000
     99     -71.7181      2.00000
    100     -71.7181      2.00000
    101     -71.7172      2.00000
    102     -71.7167      2.00000
    103     -71.7161      2.00000
    104     -71.7160      2.00000
    105     -71.7153      2.00000
    106     -71.7145      2.00000
    107     -71.7145      2.00000
    108     -71.7126      2.00000
    109     -71.7096      2.00000
    110     -71.7096      2.00000
    111     -71.7087      2.00000
    112     -71.6897      2.00000
    113     -71.6425      2.00000
    114     -71.6396      2.00000
    115     -71.6396      2.00000
    116     -71.6364      2.00000
    117     -71.6326      2.00000
    118     -71.6321      2.00000
    119     -71.6320      2.00000
    120     -71.6320      2.00000
    121     -71.5855      2.00000
    122     -71.5850      2.00000
    123     -71.5782      2.00000
    124     -71.5670      2.00000
    125     -71.5670      2.00000
    126     -71.5664      2.00000
    127     -71.5660      2.00000
    128     -71.5659      2.00000
    129     -71.5653      2.00000
    130     -71.5496      2.00000
    131     -71.5496      2.00000
    132     -71.5428      2.00000
    133     -71.5428      2.00000
    134     -71.5408      2.00000
    135     -71.5392      2.00000
    136     -71.5389      2.00000
    137     -71.5389      2.00000
    138     -71.5371      2.00000
    139     -71.5363      2.00000
    140     -71.5350      2.00000
    141     -71.5350      2.00000
    142     -71.5320      2.00000
    143     -71.5220      2.00000
    144     -71.5218      2.00000
    145     -71.5197      2.00000
    146     -71.5137      2.00000
    147     -71.5137      2.00000
    148     -71.5127      2.00000
    149     -71.5096      2.00000
    150     -71.5096      2.00000
    151     -71.5024      2.00000
    152     -71.5005      2.00000
    153     -71.4689      2.00000
    154     -71.4662      2.00000
    155     -71.4662      2.00000
    156     -71.4646      2.00000
    157     -71.4635      2.00000
    158     -71.4630      2.00000
    159     -71.4630      2.00000
    160     -71.4617      2.00000
    161     -71.4523      2.00000
    162     -71.4499      2.00000
    163     -71.4499      2.00000
    164     -71.4476      2.00000
    165     -71.4473      2.00000
    166     -71.4458      2.00000
    167     -71.4458      2.00000
    168     -71.4445      2.00000
    169     -11.1209      2.00000
    170     -10.1793      2.00000
    171      -9.7155      2.00000
    172      -9.2307      2.00000
    173      -9.2307      2.00000
    174      -9.2304      2.00000
    175      -9.1867      2.00000
    176      -9.1866      2.00000
    177      -8.9354      2.00000
    178      -8.8159      2.00000
    179      -8.6869      2.00000
    180      -8.6832      2.00000
    181      -8.3512      2.00000
    182      -8.3512      2.00000
    183      -8.2156      2.00000
    184      -8.2155      2.00000
    185      -8.1819      2.00000
    186      -7.9848      2.00000
    187      -7.9711      2.00000
    188      -7.8823      2.00000
    189      -7.7309      2.00000
    190      -7.5917      2.00000
    191      -7.5916      2.00000
    192      -7.5287      2.00000
    193      -7.5287      2.00000
    194      -7.4076      2.00000
    195      -7.4076      2.00000
    196      -7.3849      2.00000
    197      -7.2062      2.00000
    198      -7.1532      2.00000
    199      -7.1531      2.00000
    200      -6.9789      2.00000
    201      -6.9709      2.00000
    202      -6.9709      2.00000
    203      -6.9068      2.00000
    204      -6.9068      2.00000
    205      -6.8819      2.00000
    206      -6.8117      2.00000
    207      -6.6901      2.00000
    208      -6.6590      2.00000
    209      -6.6027      2.00000
    210      -6.5253      2.00000
    211      -6.5168      2.00000
    212      -6.4541      2.00000
    213      -6.4405      2.00000
    214      -6.4203      2.00000
    215      -6.4203      2.00000
    216      -6.4090      2.00000
    217      -6.4080      2.00000
    218      -6.4080      2.00000
    219      -6.3886      2.00000
    220      -6.3886      2.00000
    221      -6.3251      2.00000
    222      -6.3200      2.00000
    223      -6.3188      2.00000
    224      -6.3188      2.00000
    225      -6.2872      2.00000
    226      -6.2725      2.00000
    227      -6.2572      2.00000
    228      -6.2572      2.00000
    229      -6.2098      2.00000
    230      -6.1767      2.00000
    231      -6.1767      2.00000
    232      -6.1467      2.00000
    233      -6.1332      2.00000
    234      -6.1113      2.00000
    235      -6.1113      2.00000
    236      -6.1043      2.00000
    237      -6.0381      2.00000
    238      -6.0381      2.00000
    239      -6.0277      2.00000
    240      -5.9988      2.00000
    241      -5.9914      2.00000
    242      -5.9914      2.00000
    243      -5.9866      2.00000
    244      -5.9701      2.00000
    245      -5.9701      2.00000
    246      -5.9527      2.00000
    247      -5.9411      2.00000
    248      -5.9339      2.00000
    249      -5.9096      2.00000
    250      -5.9096      2.00000
    251      -5.8945      2.00000
    252      -5.8820      2.00000
    253      -5.8465      2.00000
    254      -5.8336      2.00000
    255      -5.8327      2.00000
    256      -5.8327      2.00000
    257      -5.7854      2.00000
    258      -5.7751      2.00000
    259      -5.7152      2.00000
    260      -5.7152      2.00000
    261      -5.6626      2.00000
    262      -5.6626      2.00000
    263      -5.6449      2.00000
    264      -5.6125      2.00000
    265      -5.6125      2.00000
    266      -5.6071      2.00000
    267      -5.5571      2.00000
    268      -5.5570      2.00000
    269      -5.5550      2.00000
    270      -5.5367      2.00000
    271      -5.5305      2.00000
    272      -5.5213      2.00000
    273      -5.4972      2.00000
    274      -5.4780      2.00000
    275      -5.4779      2.00000
    276      -5.4435      2.00000
    277      -5.4387      2.00000
    278      -5.4387      2.00000
    279      -5.4094      2.00000
    280      -5.3958      2.00000
    281      -5.3958      2.00000
    282      -5.3436      2.00000
    283      -5.3436      2.00000
    284      -5.3288      2.00000
    285      -5.3098      2.00000
    286      -5.3097      2.00000
    287      -5.2926      2.00000
    288      -5.2473      2.00000
    289      -5.2473      2.00000
    290      -5.2363      2.00000
    291      -5.2299      2.00000
    292      -5.2041      2.00000
    293      -5.2010      2.00000
    294      -5.2010      2.00000
    295      -5.1425      2.00000
    296      -5.1425      2.00000
    297      -5.1365      2.00000
    298      -5.1284      2.00000
    299      -5.1284      2.00000
    300      -5.1231      2.00000
    301      -5.1100      2.00000
    302      -5.1100      2.00000
    303      -5.0943      2.00000
    304      -5.0775      2.00000
    305      -5.0775      2.00000
    306      -5.0667      2.00000
    307      -5.0655      2.00000
    308      -5.0486      2.00000
    309      -5.0486      2.00000
    310      -5.0412      2.00000
    311      -5.0304      2.00000
    312      -5.0303      2.00000
    313      -4.9911      2.00000
    314      -4.9390      2.00000
    315      -4.9081      2.00000
    316      -4.9062      2.00000
    317      -4.9058      2.00000
    318      -4.8639      2.00000
    319      -4.8590      2.00000
    320      -4.8503      2.00000
    321      -4.8503      2.00000
    322      -4.8420      2.00000
    323      -4.8289      2.00000
    324      -4.8121      2.00000
    325      -4.7856      2.00000
    326      -4.7837      2.00000
    327      -4.7713      2.00000
    328      -4.7713      2.00000
    329      -4.7691      2.00000
    330      -4.7604      2.00000
    331      -4.7594      2.00000
    332      -4.7575      2.00000
    333      -4.7514      2.00000
    334      -4.7514      2.00000
    335      -4.7501      2.00000
    336      -4.7212      2.00000
    337      -4.7098      2.00000
    338      -4.7009      2.00000
    339      -4.7009      2.00000
    340      -4.6783      2.00000
    341      -4.6776      2.00000
    342      -4.6776      2.00000
    343      -4.6512      2.00000
    344      -4.6512      2.00000
    345      -4.6485      2.00000
    346      -4.6430      2.00000
    347      -4.6430      2.00000
    348      -4.6268      2.00000
    349      -4.6083      2.00000
    350      -4.6083      2.00000
    351      -4.6013      2.00000
    352      -4.5940      2.00000
    353      -4.5940      2.00000
    354      -4.5934      2.00000
    355      -4.5931      2.00000
    356      -4.5354      2.00000
    357      -4.5313      2.00000
    358      -4.5313      2.00000
    359      -4.5253      2.00000
    360      -4.4969      2.00000
    361      -4.4968      2.00000
    362      -4.4936      2.00000
    363      -4.4932      2.00000
    364      -4.4926      2.00000
    365      -4.4926      2.00000
    366      -4.4872      2.00000
    367      -4.4843      2.00000
    368      -4.4806      2.00000
    369      -4.4531      2.00000
    370      -4.4530      2.00000
    371      -4.4498      2.00000
    372      -4.4498      2.00000
    373      -4.4408      2.00000
    374      -4.4351      2.00000
    375      -4.4351      2.00000
    376      -4.4349      2.00000
    377      -4.4122      2.00000
    378      -4.3968      2.00000
    379      -4.3703      2.00000
    380      -4.3703      2.00000
    381      -4.3479      2.00000
    382      -4.3392      2.00000
    383      -4.3373      2.00000
    384      -4.3312      2.00000
    385      -4.2903      2.00000
    386      -4.2903      2.00000
    387      -4.2733      2.00000
    388      -4.2733      2.00000
    389      -4.2441      2.00000
    390      -4.2440      2.00000
    391      -4.2392      2.00000
    392      -4.2392      2.00000
    393      -4.2333      2.00000
    394      -4.1955      2.00000
    395      -4.1932      2.00000
    396      -4.1859      2.00000
    397      -4.1837      2.00000
    398      -4.1837      2.00000
    399      -4.1812      2.00000
    400      -4.1812      2.00000
    401      -4.1683      2.00000
    402      -4.1393      2.00000
    403      -4.1393      2.00000
    404      -4.1252      2.00000
    405      -4.1113      2.00000
    406      -4.1112      2.00000
    407      -4.1013      2.00000
    408      -4.0668      2.00000
    409      -4.0668      2.00000
    410      -4.0520      2.00000
    411      -4.0270      2.00000
    412      -4.0231      2.00000
    413      -4.0231      2.00000
    414      -3.9818      2.00000
    415      -3.9529      2.00000
    416      -3.9529      2.00000
    417      -3.9394      2.00000
    418      -3.9367      2.00000
    419      -3.9363      2.00000
    420      -3.9309      2.00000
    421      -3.9309      2.00000
    422      -3.9236      2.00000
    423      -3.9233      2.00000
    424      -3.9233      2.00000
    425      -3.9124      2.00000
    426      -3.9123      2.00000
    427      -3.9088      2.00000
    428      -3.9088      2.00000
    429      -3.9068      2.00000
    430      -3.9048      2.00000
    431      -3.9038      2.00000
    432      -3.8982      2.00000
    433      -3.8864      2.00000
    434      -3.8836      2.00000
    435      -3.8836      2.00000
    436      -3.8698      2.00000
    437      -3.8698      2.00000
    438      -3.8658      2.00000
    439      -3.8481      2.00000
    440      -3.8481      2.00000
    441      -3.8303      2.00000
    442      -3.8112      2.00000
    443      -3.8004      2.00000
    444      -3.8004      2.00000
    445      -3.7996      2.00000
    446      -3.7897      2.00000
    447      -3.7769      2.00000
    448      -3.7769      2.00000
    449      -3.7275      2.00000
    450      -3.7188      2.00000
    451      -3.7115      2.00000
    452      -3.6934      2.00000
    453      -3.6782      2.00000
    454      -3.6782      2.00000
    455      -3.6670      2.00000
    456      -3.6602      2.00000
    457      -3.6441      2.00000
    458      -3.6441      2.00000
    459      -3.6275      2.00000
    460      -3.5644      2.00000
    461      -3.5644      2.00000
    462      -3.5554      2.00000
    463      -3.5520      2.00000
    464      -3.5291      2.00000
    465      -3.5291      2.00000
    466      -3.4934      2.00000
    467      -3.4931      2.00000
    468      -3.4904      2.00000
    469      -3.4788      2.00000
    470      -3.4761      2.00000
    471      -3.4750      2.00000
    472      -3.4464      2.00000
    473      -3.4462      2.00000
    474      -3.4414      2.00000
    475      -3.4313      2.00000
    476      -3.4294      2.00000
    477      -3.4270      2.00000
    478      -3.4270      2.00000
    479      -3.4193      2.00000
    480      -3.4170      2.00000
    481      -3.4131      2.00000
    482      -3.4131      2.00000
    483      -3.4082      2.00000
    484      -3.4061      2.00000
    485      -3.4053      2.00000
    486      -3.4053      2.00000
    487      -3.3989      2.00000
    488      -3.3989      2.00000
    489      -3.3450      2.00000
    490      -3.3441      2.00000
    491      -3.3434      2.00000
    492      -3.3268      2.00000
    493      -3.3227      2.00000
    494      -3.3227      2.00000
    495      -3.3216      2.00000
    496      -3.3216      2.00000
    497      -3.3198      2.00000
    498      -3.2028      2.00000
    499      -3.1827      2.00000
    500      -3.1822      2.00000
    501      -3.1799      2.00000
    502      -3.1754      2.00000
    503      -3.1750      2.00000
    504      -3.1325      2.00000
    505      -3.0237      2.00000
    506      -3.0237      2.00000
    507      -2.9984      2.00000
    508      -2.9812      2.00000
    509      -2.9559      2.00000
    510      -2.9558      2.00000
    511      -2.1409      2.00000
    512      -2.1017      2.00000
    513      -2.0877      2.00000
    514      -2.0808      2.00000
    515      -1.9774      2.00000
    516      -1.9774      2.00000
    517      -1.9498      2.00000
    518      -1.9498      2.00000
    519      -1.9256      0.53777
    520      -1.9186      0.31035
    521      -1.3755      0.00000
    522      -1.3755      0.00000
    523      -1.1608      0.00000
    524      -1.1544      0.00000
    525      -1.1366      0.00000
    526      -1.1302      0.00000
    527      -1.1302      0.00000
    528      -1.0851      0.00000
    529      -1.0262      0.00000
    530      -1.0245      0.00000
    531      -0.9410      0.00000
    532      -0.9410      0.00000
    533      -0.9347      0.00000
    534      -0.9347      0.00000
    535      -0.9318      0.00000
    536      -0.5427      0.00000
    537      -0.5378      0.00000
    538      -0.5274      0.00000
    539      -0.2667      0.00000
    540      -0.2625      0.00000
    541      -0.2556      0.00000
    542      -0.0415      0.00000
    543      -0.0415      0.00000
    544       0.2414      0.00000
    545       0.2436      0.00000
    546       0.3154      0.00000
    547       0.3154      0.00000
    548       1.0123      0.00000
    549       1.0692      0.00000
    550       1.0692      0.00000
    551       1.1053      0.00000
    552       1.1309      0.00000
    553       1.1309      0.00000
    554       2.2769      0.00000
    555       2.2769      0.00000
    556       2.3538      0.00000
    557       2.3688      0.00000
    558       2.3742      0.00000
    559       2.4435      0.00000
    560       2.4436      0.00000
    561       2.4614      0.00000
    562       2.4792      0.00000
    563       2.4822      0.00000
    564       2.6009      0.00000
    565       2.8451      0.00000
    566       3.0010      0.00000
    567       3.4149      0.00000
    568       3.4186      0.00000
    569       3.4231      0.00000
    570       3.5282      0.00000
    571       3.7486      0.00000
    572       3.9448      0.00000
    573       3.9513      0.00000
    574       3.9513      0.00000
    575       3.9714      0.00000
    576       3.9714      0.00000
    577       3.9756      0.00000
    578       4.2409      0.00000
    579       4.2471      0.00000
    580       4.3505      0.00000
    581       4.4361      0.00000
    582       4.4361      0.00000
    583       4.4572      0.00000
    584       4.4572      0.00000
    585       4.4732      0.00000
    586       4.4984      0.00000
    587       4.5356      0.00000
    588       4.5497      0.00000
    589       4.5628      0.00000
    590       4.5628      0.00000
    591       4.5743      0.00000
    592       4.5743      0.00000
    593       4.6191      0.00000
    594       4.6669      0.00000
    595       4.7372      0.00000
    596       4.7393      0.00000
    597       4.7393      0.00000
    598       4.7461      0.00000
    599       4.7579      0.00000
    600       4.7579      0.00000
    601       4.8347      0.00000
    602       4.8347      0.00000
    603       4.8349      0.00000
    604       4.8403      0.00000
    605       4.8403      0.00000
    606       4.8413      0.00000
    607       4.9262      0.00000
    608       4.9263      0.00000
    609       4.9676      0.00000
    610       4.9677      0.00000
    611       4.9778      0.00000
    612       4.9860      0.00000
    613       5.1280      0.00000
    614       5.1284      0.00000
    615       5.2531      0.00000
    616       5.3410      0.00000
    617       5.3806      0.00000
    618       5.3996      0.00000
    619       5.4027      0.00000
    620       5.4065      0.00000
    621       5.4290      0.00000
    622       5.4355      0.00000
    623       5.4520      0.00000
    624       5.4797      0.00000

 k-point     2 :       0.3333    0.0000    0.0000
  band No.  band energies     occupation 
      1     -71.9037      2.00000
      2     -71.9018      2.00000
      3     -71.8972      2.00000
      4     -71.8959      2.00000
      5     -71.8818      2.00000
      6     -71.8720      2.00000
      7     -71.8706      2.00000
      8     -71.8683      2.00000
      9     -71.8644      2.00000
     10     -71.8638      2.00000
     11     -71.8429      2.00000
     12     -71.8428      2.00000
     13     -71.8405      2.00000
     14     -71.8365      2.00000
     15     -71.8357      2.00000
     16     -71.8331      2.00000
     17     -71.8311      2.00000
     18     -71.8297      2.00000
     19     -71.8277      2.00000
     20     -71.8274      2.00000
     21     -71.8205      2.00000
     22     -71.8183      2.00000
     23     -71.8146      2.00000
     24     -71.8116      2.00000
     25     -71.8101      2.00000
     26     -71.8090      2.00000
     27     -71.8080      2.00000
     28     -71.8070      2.00000
     29     -71.8058      2.00000
     30     -71.8054      2.00000
     31     -71.8049      2.00000
     32     -71.8030      2.00000
     33     -71.8022      2.00000
     34     -71.8015      2.00000
     35     -71.7996      2.00000
     36     -71.7966      2.00000
     37     -71.7960      2.00000
     38     -71.7944      2.00000
     39     -71.7932      2.00000
     40     -71.7925      2.00000
     41     -71.7912      2.00000
     42     -71.7909      2.00000
     43     -71.7895      2.00000
     44     -71.7873      2.00000
     45     -71.7872      2.00000
     46     -71.7868      2.00000
     47     -71.7866      2.00000
     48     -71.7855      2.00000
     49     -71.7837      2.00000
     50     -71.7821      2.00000
     51     -71.7815      2.00000
     52     -71.7801      2.00000
     53     -71.7798      2.00000
     54     -71.7796      2.00000
     55     -71.7790      2.00000
     56     -71.7773      2.00000
[...]
   -.204E-03 -.378E+03 -.692E+04   -.620E-11 0.376E+03 0.692E+04   -.154E-16 0.149E+01 0.455E+00   -.244E-02 0.219E+00 0.157E-01
   -.204E-03 -.378E+03 -.692E+04   -.626E-11 0.376E+03 0.692E+04   -.169E-16 0.149E+01 0.455E+00   -.244E-02 0.219E+00 0.157E-01
   -.204E-03 -.378E+03 -.692E+04   -.633E-11 0.376E+03 0.692E+04   -.194E-16 0.149E+01 0.455E+00   -.244E-02 0.219E+00 0.157E-01
   -.204E-03 -.378E+03 -.692E+04   -.635E-11 0.376E+03 0.692E+04   -.578E-17 0.149E+01 0.455E+00   -.244E-02 0.219E+00 0.157E-01
   0.351E-04 -.112E+03 -.383E+04   0.517E-10 0.112E+03 0.383E+04   0.245E-17 0.111E+00 0.129E+01   -.135E-03 0.799E-01 -.122E+01
   0.351E-04 -.112E+03 -.383E+04   0.517E-10 0.112E+03 0.383E+04   -.755E-18 0.111E+00 0.129E+01   -.135E-03 0.799E-01 -.122E+01
   0.351E-04 -.112E+03 -.383E+04   0.516E-10 0.112E+03 0.383E+04   0.697E-17 0.111E+00 0.129E+01   -.135E-03 0.799E-01 -.122E+01
   0.351E-04 -.112E+03 -.383E+04   0.514E-10 0.112E+03 0.383E+04   -.209E-17 0.111E+00 0.129E+01   -.135E-03 0.799E-01 -.122E+01
   -.195E-04 -.230E+02 0.100E+05   0.706E-11 0.226E+02 -.999E+04   -.114E-16 0.718E-01 -.337E+01   -.224E-03 0.332E+00 -.130E+01
   -.977E-04 0.468E+03 -.417E+04   -.262E-10 -.467E+03 0.417E+04   0.199E-16 -.788E+00 0.300E+01   0.164E-03 -.654E+00 -.117E+01
   -.977E-04 0.468E+03 -.417E+04   -.262E-10 -.467E+03 0.417E+04   -.209E-16 -.788E+00 0.300E+01   0.164E-03 -.654E+00 -.117E+01
   -.977E-04 0.468E+03 -.417E+04   -.262E-10 -.467E+03 0.417E+04   -.587E-17 -.788E+00 0.300E+01   0.164E-03 -.654E+00 -.117E+01
   -.977E-04 0.468E+03 -.417E+04   -.263E-10 -.467E+03 0.417E+04   0.124E-16 -.788E+00 0.300E+01   0.164E-03 -.654E+00 -.117E+01
   0.203E-03 0.916E+02 -.470E+04   0.311E-10 -.916E+02 0.470E+04   0.526E-17 -.481E-01 0.481E+01   0.845E-04 -.169E-01 -.812E+00
   0.203E-03 0.916E+02 -.470E+04   0.310E-10 -.916E+02 0.470E+04   -.108E-16 -.481E-01 0.481E+01   0.845E-04 -.169E-01 -.812E+00
   0.213E-03 -.449E+03 -.437E+04   -.177E-10 0.448E+03 0.437E+04   0.183E-16 0.596E+00 0.405E+01   -.575E-01 0.545E+00 -.127E+01
   0.213E-03 -.449E+03 -.437E+04   -.177E-10 0.448E+03 0.437E+04   0.472E-17 0.596E+00 0.405E+01   -.575E-01 0.545E+00 -.127E+01
   0.213E-03 -.449E+03 -.437E+04   -.175E-10 0.448E+03 0.437E+04   0.172E-17 0.596E+00 0.405E+01   -.575E-01 0.545E+00 -.127E+01
   0.203E-03 0.916E+02 -.470E+04   0.310E-10 -.916E+02 0.470E+04   0.693E-17 -.481E-01 0.481E+01   0.845E-04 -.169E-01 -.812E+00
   -.242E-04 0.593E+03 -.104E+05   0.428E-10 -.590E+03 0.104E+05   0.985E-17 -.183E+01 0.203E+01   -.573E-01 -.418E+00 0.327E+00
   -.242E-04 0.593E+03 -.104E+05   0.426E-10 -.590E+03 0.104E+05   -.158E-16 -.183E+01 0.203E+01   -.573E-01 -.418E+00 0.327E+00
   -.242E-04 0.593E+03 -.104E+05   0.427E-10 -.590E+03 0.104E+05   -.174E-17 -.183E+01 0.203E+01   -.573E-01 -.418E+00 0.327E+00
   -.242E-04 0.593E+03 -.104E+05   0.426E-10 -.590E+03 0.104E+05   0.162E-16 -.183E+01 0.203E+01   -.573E-01 -.418E+00 0.327E+00
   0.832E-04 -.590E+03 -.104E+05   -.386E-10 0.587E+03 0.104E+05   -.595E-17 0.208E+01 0.211E+01   0.763E-03 0.296E+00 0.153E+00
   0.832E-04 -.590E+03 -.104E+05   -.387E-10 0.587E+03 0.104E+05   -.411E-17 0.208E+01 0.211E+01   0.763E-03 0.296E+00 0.153E+00
   0.213E-03 -.449E+03 -.437E+04   -.179E-10 0.448E+03 0.437E+04   0.212E-16 0.596E+00 0.405E+01   -.575E-01 0.545E+00 -.127E+01
   0.203E-03 0.916E+02 -.470E+04   0.308E-10 -.916E+02 0.470E+04   -.147E-17 -.481E-01 0.481E+01   0.845E-04 -.169E-01 -.812E+00
   -.867E-04 -.121E+03 0.296E+04   -.104E-12 0.121E+03 -.296E+04   -.746E-17 0.909E-01 -.981E+00   0.571E-01 0.560E+00 -.217E+01
   -.867E-04 -.121E+03 0.296E+04   -.289E-12 0.121E+03 -.296E+04   0.101E-16 0.909E-01 -.981E+00   0.571E-01 0.560E+00 -.217E+01
   -.195E-04 -.230E+02 0.100E+05   0.696E-11 0.226E+02 -.999E+04   -.571E-17 0.718E-01 -.337E+01   -.224E-03 0.332E+00 -.130E+01
   -.195E-04 -.230E+02 0.100E+05   0.693E-11 0.226E+02 -.999E+04   -.353E-17 0.718E-01 -.337E+01   -.224E-03 0.332E+00 -.130E+01
   -.195E-04 -.230E+02 0.100E+05   0.696E-11 0.226E+02 -.999E+04   0.514E-17 0.718E-01 -.337E+01   -.224E-03 0.332E+00 -.130E+01
   -.180E-04 0.190E+02 0.999E+04   0.711E-11 -.190E+02 -.999E+04   -.193E-17 0.289E-01 -.340E+01   -.227E-03 0.182E-01 -.124E+01
   -.180E-04 0.190E+02 0.999E+04   0.697E-11 -.190E+02 -.999E+04   -.109E-17 0.289E-01 -.340E+01   -.227E-03 0.182E-01 -.124E+01
   -.180E-04 0.190E+02 0.999E+04   0.690E-11 -.190E+02 -.999E+04   -.313E-17 0.289E-01 -.340E+01   -.227E-03 0.182E-01 -.124E+01
   -.180E-04 0.190E+02 0.999E+04   0.703E-11 -.190E+02 -.999E+04   -.740E-18 0.289E-01 -.340E+01   -.227E-03 0.182E-01 -.124E+01
   0.163E-04 0.231E+02 0.100E+05   0.698E-11 -.226E+02 -.100E+05   0.177E-17 -.125E+00 -.318E+01   -.227E-03 -.393E+00 -.153E+01
   0.163E-04 0.231E+02 0.100E+05   0.687E-11 -.226E+02 -.100E+05   0.323E-17 -.125E+00 -.318E+01   -.227E-03 -.393E+00 -.153E+01
   0.163E-04 0.231E+02 0.100E+05   0.685E-11 -.226E+02 -.100E+05   0.443E-17 -.125E+00 -.318E+01   -.227E-03 -.393E+00 -.153E+01
   0.163E-04 0.231E+02 0.100E+05   0.682E-11 -.226E+02 -.100E+05   0.200E-17 -.125E+00 -.318E+01   -.227E-03 -.393E+00 -.153E+01
   0.159E-04 -.192E+02 0.100E+05   0.709E-11 0.190E+02 -.100E+05   -.223E-17 0.105E+00 -.314E+01   -.229E-03 0.105E+00 -.158E+01
   0.159E-04 -.192E+02 0.100E+05   0.710E-11 0.190E+02 -.100E+05   0.199E-17 0.105E+00 -.314E+01   -.229E-03 0.105E+00 -.158E+01
   0.159E-04 -.192E+02 0.100E+05   0.724E-11 0.190E+02 -.100E+05   -.504E-17 0.105E+00 -.314E+01   -.229E-03 0.105E+00 -.158E+01
   0.159E-04 -.192E+02 0.100E+05   0.700E-11 0.190E+02 -.100E+05   0.242E-18 0.105E+00 -.314E+01   -.229E-03 0.105E+00 -.158E+01
   -.103E-03 -.458E+02 0.280E+04   -.223E-10 0.454E+02 -.280E+04   0.967E-17 0.741E-01 -.100E+01   0.563E-01 0.352E+00 -.220E+01
   -.103E-03 -.458E+02 0.280E+04   -.226E-10 0.454E+02 -.280E+04   0.784E-17 0.741E-01 -.100E+01   0.563E-01 0.352E+00 -.220E+01
   -.103E-03 -.458E+02 0.280E+04   -.223E-10 0.454E+02 -.280E+04   0.832E-17 0.741E-01 -.100E+01   0.563E-01 0.352E+00 -.220E+01
   -.103E-03 -.458E+02 0.280E+04   -.226E-10 0.454E+02 -.280E+04   -.179E-17 0.741E-01 -.100E+01   0.563E-01 0.352E+00 -.220E+01
   -.813E-04 0.124E+03 0.287E+04   -.163E-10 -.124E+03 -.287E+04   0.211E-16 -.122E+00 -.101E+01   0.565E-01 -.468E+00 -.229E+01
   -.813E-04 0.124E+03 0.287E+04   -.163E-10 -.124E+03 -.287E+04   0.584E-17 -.122E+00 -.101E+01   0.565E-01 -.468E+00 -.229E+01
   -.813E-04 0.124E+03 0.287E+04   -.163E-10 -.124E+03 -.287E+04   0.199E-16 -.122E+00 -.101E+01   0.565E-01 -.468E+00 -.229E+01
   -.813E-04 0.124E+03 0.287E+04   -.165E-10 -.124E+03 -.287E+04   0.713E-17 -.122E+00 -.101E+01   0.565E-01 -.468E+00 -.229E+01
   -.106E-03 0.431E+02 0.304E+04   -.177E-10 -.427E+02 -.304E+04   -.100E-16 -.131E+00 -.982E+00   0.565E-01 -.254E+00 -.233E+01
   -.106E-03 0.431E+02 0.304E+04   -.178E-10 -.427E+02 -.304E+04   0.155E-16 -.131E+00 -.982E+00   0.565E-01 -.254E+00 -.233E+01
   -.106E-03 0.431E+02 0.304E+04   -.177E-10 -.427E+02 -.304E+04   -.135E-16 -.131E+00 -.982E+00   0.565E-01 -.254E+00 -.233E+01
   -.106E-03 0.431E+02 0.304E+04   -.178E-10 -.427E+02 -.304E+04   0.416E-17 -.131E+00 -.982E+00   0.565E-01 -.254E+00 -.233E+01
   -.867E-04 -.121E+03 0.296E+04   0.537E-12 0.121E+03 -.296E+04   0.546E-17 0.909E-01 -.981E+00   0.571E-01 0.560E+00 -.217E+01
   -.867E-04 -.121E+03 0.296E+04   0.271E-12 0.121E+03 -.296E+04   0.647E-17 0.909E-01 -.981E+00   0.571E-01 0.560E+00 -.217E+01
   0.832E-04 -.590E+03 -.104E+05   -.388E-10 0.587E+03 0.104E+05   -.386E-17 0.208E+01 0.211E+01   0.763E-03 0.296E+00 0.153E+00
   0.832E-04 -.590E+03 -.104E+05   -.389E-10 0.587E+03 0.104E+05   -.873E-17 0.208E+01 0.211E+01   0.763E-03 0.296E+00 0.153E+00
 -----------------------------------------------------------------------------------------------
   -.356E-03 -.568E+00 0.719E+02   0.819E-12 0.159E-11 0.764E-10   0.142E-16 -.812E-02 0.499E+01   0.438E+00 0.473E+00 -.747E+02


 POSITION                                       TOTAL-FORCE (eV/Angst)
 -----------------------------------------------------------------------------------
      6.42583      2.34141     21.41020        -0.000000     -0.006158      0.007892
     11.56650      2.34141     21.41020        -0.000000     -0.006158      0.007892
      3.85550      2.34141     21.41020        -0.000000     -0.006158      0.007892
      8.99617      2.34141     21.41020        -0.000000     -0.006158      0.007892
      5.14067      8.77670     21.41207        -0.000000     -0.006129      0.005382
      7.71100      8.77670     21.41207        -0.000000     -0.006129      0.005382
     10.28133      8.77670     21.41207        -0.000000     -0.006129      0.005382
     12.85167      8.77670     21.41207        -0.000000     -0.006129      0.005382
     10.28133      5.93610     19.08204        -0.000000     -0.011051      0.010861
      7.71100      5.93610     19.08204        -0.000000     -0.011051      0.010861
      5.14067      5.93610     19.08204        -0.000000     -0.011051      0.010861
     12.85167      5.93610     19.08204        -0.000000     -0.011051      0.010861
      0.00000      0.00000     15.00000        -0.000000      0.007191      0.327131
      8.99617      3.72259     19.09899        -0.000000      0.008674     -0.005467
      6.42583      3.72259     19.09899        -0.000000      0.008674     -0.005467
      3.85550      3.72259     19.09899        -0.000000      0.008674     -0.005467
     11.56650      3.72259     19.09899        -0.000000      0.008674     -0.005467
      7.71100      1.47803     19.11955        -0.000000      0.007842      0.008073
      5.14067      1.47803     19.11955        -0.000000      0.007842      0.008073
     14.13683      8.14841     19.09281         0.000000     -0.006935      0.001704
      6.42583      8.14841     19.09281         0.000000     -0.006935      0.001704
     11.56650      8.14841     19.09281         0.000000     -0.006935      0.001704
      2.57033      1.47803     19.11955        -0.000000      0.007842      0.008073
     12.85167      4.54480     21.15442         0.000000     -0.000733      0.000070
      5.14067      4.54480     21.15442        -0.000000     -0.000733      0.000070
      7.71100      4.54480     21.15442         0.000000     -0.000733      0.000070
     10.28133      4.54480     21.15442        -0.000000     -0.000733      0.000070
      3.85550      6.57770     21.14979        -0.000000     -0.005460     -0.000370
      6.42583      6.57770     21.14979        -0.000000     -0.005460     -0.000370
      8.99617      8.14841     19.09281         0.000000     -0.006935      0.001704
     10.28133      1.47803     19.11955        -0.000000      0.007842      0.008073
     12.85167      7.41991     17.09867         0.000000      0.028064     -0.381429
     10.28133      7.41991     17.09867         0.000000      0.028064     -0.381429
      2.57033      0.00000     15.00000        -0.000000      0.007191      0.327131
      5.14067      0.00000     15.00000        -0.000000      0.007191      0.327131
      7.71100      0.00000     15.00000        -0.000000      0.007191      0.327131
      1.28517      2.22597     15.00000        -0.000000      0.007776      0.304513
      3.85550      2.22597     15.00000        -0.000000      0.007776      0.304513
      6.42583      2.22597     15.00000        -0.000000      0.007776      0.304513
      8.99617      2.22597     15.00000        -0.000000      0.007776      0.304513
      2.57033      4.45195     15.00000        -0.000000      0.011280      0.316390
      5.14067      4.45195     15.00000        -0.000000      0.011280      0.316390
      7.71100      4.45195     15.00000        -0.000000      0.011280      0.316390
     10.28133      4.45195     15.00000        -0.000000      0.011280      0.316390
      3.85550      6.67792     15.00000        -0.000000     -0.012654      0.317321
      6.42583      6.67792     15.00000        -0.000000     -0.012654      0.317321
      8.99617      6.67792     15.00000        -0.000000     -0.012654      0.317321
     11.56650      6.67792     15.00000        -0.000000     -0.012654      0.317321
      1.28517      0.74199     17.09867         0.000000      0.024006     -0.232960
      3.85550      0.74199     17.09867         0.000000      0.024006     -0.232960
      6.42583      0.74199     17.09867        -0.000000      0.024006     -0.232960
      8.99617      0.74199     17.09867        -0.000000      0.024006     -0.232960
      2.57033      2.96797     17.09867         0.000000     -0.016523     -0.275012
      5.14067      2.96797     17.09867         0.000000     -0.016523     -0.275012
      7.71100      2.96797     17.09867         0.000000     -0.016523     -0.275012
     10.28133      2.96797     17.09867         0.000000     -0.016523     -0.275012
      3.85550      5.19394     17.09867        -0.000000     -0.029190     -0.404100
      6.42583      5.19394     17.09867        -0.000000     -0.029190     -0.404100
      8.99617      5.19394     17.09867         0.000000     -0.029190     -0.404100
     11.56650      5.19394     17.09867        -0.000000     -0.029190     -0.404100
      5.14067      7.41991     17.09867        -0.000000      0.028064     -0.381429
      7.71100      7.41991     17.09867         0.000000      0.028064     -0.381429
      8.99617      6.57770     21.14979        -0.000000     -0.005460     -0.000370
     11.56650      6.57770     21.14979        -0.000000     -0.005460     -0.000370
 -----------------------------------------------------------------------------------
    total drift:                                0.437410     -0.102751      2.269136


--------------------------------------------------------------------------------------------------------



  FREE ENERGIE OF THE ION-ELECTRON SYSTEM (eV)
  ---------------------------------------------------
  free  energy   TOTEN  =      -251.18664031 eV

  energy  without entropy=     -251.18664031  energy(sigma->0) =     -251.18664031



--------------------------------------------------------------------------------------------------------


    POTLOK:  cpu time      0.1691: real time      0.1699


--------------------------------------------------------------------------------------------------------


     LOOP+:  cpu time    342.2789: real time    344.8615
 -----------------------------------------------------------------------------
|                                                                             |
|           W    W    AA    RRRRR   N    N  II  N    N   GGGG   !!!           |
|           W    W   A  A   R    R  NN   N  II  NN   N  G    G  !!!           |
|           W    W  A    A  R    R  N N  N  II  N N  N  G       !!!           |
|           W WW W  AAAAAA  RRRRR   N  N N  II  N  N N  G  GGG   !            |
|           WW  WW  A    A  R   R   N   NN  II  N   NN  G    G                |
|           W    W  A    A  R    R  N    N  II  N    N   GGGG   !!!           |
|                                                                             |
|     Tetrahedron method does not include variations of the Fermi             |
|     occupations, so forces and stress will be inaccurate. We suggest        |
|     using a different smearing scheme ISMEAR = 1 or 2 for metals in         |
|     relaxations.                                                            |
|                                                                             |
 -----------------------------------------------------------------------------

    4ORBIT:  cpu time      0.0000: real time      0.0000



 total charge

# of ion       s       p       d       tot
------------------------------------------
    1        0.664   0.403   8.732   9.799
    2        0.664   0.403   8.732   9.799
    3        0.664   0.403   8.732   9.799
    4        0.664   0.403   8.732   9.799
    5        0.665   0.400   8.733   9.798
    6        0.665   0.400   8.733   9.798
    7        0.665   0.400   8.733   9.798
    8        0.665   0.400   8.733   9.798
    9        0.300   6.202   8.867  15.370
   10        0.300   6.202   8.867  15.370
   11        0.300   6.202   8.867  15.370
   12        0.300   6.202   8.867  15.370
   13        0.297   6.137   8.882  15.316
   14        0.291   6.190   8.877  15.358
   15        0.291   6.190   8.877  15.358
   16        0.291   6.190   8.877  15.358
   17        0.291   6.190   8.877  15.358
   18        0.282   6.174   8.890  15.345
   19        0.282   6.174   8.890  15.345
   20        0.289   6.185   8.886  15.359
   21        0.289   6.185   8.886  15.359
   22        0.289   6.185   8.886  15.359
   23        0.282   6.174   8.890  15.345
   24        0.306   6.171   8.888  15.365
   25        0.306   6.171   8.888  15.365
   26        0.306   6.171   8.888  15.365
   27        0.306   6.171   8.888  15.365
   28        0.307   6.171   8.888  15.365
   29        0.307   6.171   8.888  15.365
   30        0.289   6.185   8.886  15.359
   31        0.282   6.174   8.890  15.345
   32        0.294   6.194   8.865  15.353
   33        0.294   6.194   8.865  15.353
   34        0.297   6.137   8.882  15.316
   35        0.297   6.137   8.882  15.316
   36        0.297   6.137   8.882  15.316
   37        0.297   6.136   8.882  15.315
   38        0.297   6.136   8.882  15.315
   39        0.297   6.136   8.882  15.315
   40        0.297   6.136   8.882  15.315
   41        0.297   6.137   8.882  15.316
   42        0.297   6.137   8.882  15.316
   43        0.297   6.137   8.882  15.316
   44        0.297   6.137   8.882  15.316
   45        0.297   6.137   8.883  15.317
   46        0.297   6.137   8.883  15.317
   47        0.297   6.137   8.883  15.317
   48        0.297   6.137   8.883  15.317
   49        0.292   6.190   8.866  15.348
   50        0.292   6.190   8.866  15.348
   51        0.292   6.190   8.866  15.348
   52        0.292   6.190   8.866  15.348
   53        0.293   6.190   8.866  15.349
   54        0.293   6.190   8.866  15.349
   55        0.293   6.190   8.866  15.349
   56        0.293   6.190   8.866  15.349
   57        0.294   6.194   8.867  15.354
   58        0.294   6.194   8.867  15.354
   59        0.294   6.194   8.867  15.354
   60        0.294   6.194   8.867  15.354
   61        0.294   6.194   8.865  15.353
   62        0.294   6.194   8.865  15.353
   63        0.307   6.171   8.888  15.365
   64        0.307   6.171   8.888  15.365
--------------------------------------------------
tot         21.855 348.841 567.016 937.712

 BZINTS: Fermi energy:   -1.943054; 1040.000000 electrons
         Band energy:-0.275669E+05;  BLOECHL correction:   -0.061653

 total amount of memory used by VASP MPI-rank0   220400. kBytes
=======================================================================

   base                                    :      30000. kBytes
   nonlr-proj                              :       5609. kBytes
   fftplans                                :      11892. kBytes
   grid                                    :      18858. kBytes
   one-center                              :        248. kBytes
   wavefun                                 :     153793. kBytes

  
  
 General timing and accounting informations for this job:
 ========================================================
  
                  Total CPU time used (sec):      367.763
                            User time (sec):      347.958
                          System time (sec):       19.804
                         Elapsed time (sec):      370.792
  
                   Maximum memory used (kb):      285320.
                   Average memory used (kb):          N/A
  
                          Minor page faults:       120875
                          Major page faults:           21
                 Voluntary context switches:          703
