50% Au d-band                           
           1
    10.281333    0.000000    0.000000
     5.140666    8.903895    0.000000
     0.000000    0.000000   36.296005
   Au   Cu
     8    56
Direct configuration=     1
   0.49351784  0.26296431  0.58987764
   0.99351784  0.26296431  0.58987764
   0.24351784  0.26296431  0.58987764
   0.74351784  0.26296431  0.58987764
   0.00714256  0.98571488  0.58992905
   0.25714256  0.98571488  0.58992905
   0.50714256  0.98571488  0.58992905
   0.75714256  0.98571488  0.58992905
   0.66665687  0.66668625  0.52573385
   0.41665687  0.66668625  0.52573385
   0.16665687  0.66668625  0.52573385
   0.91665687  0.66668625  0.52573385
   0.00000000  0.00000000  0.41326863
   0.66595695  0.41808610  0.52620094
   0.41595695  0.41808610  0.52620094
   0.16595695  0.41808610  0.52620094
   0.91595695  0.41808610  0.52620094
   0.66700101  0.16599799  0.52676737
   0.41700101  0.16599799  0.52676737
   0.91742467  0.91515065  0.52603054
   0.16742467  0.91515065  0.52603054
   0.66742467  0.91515065  0.52603054
   0.16700101  0.16599799  0.52676737
   0.99478564  0.51042872  0.58283042
   0.24478564  0.51042872  0.58283042
   0.49478564  0.51042872  0.58283042
   0.74478564  0.51042872  0.58283042
   0.00562795  0.73874410  0.58270305
   0.25562795  0.73874410  0.58270305
   0.41742467  0.91515065  0.52603054
   0.91700101  0.16599799  0.52676737
   0.83333333  0.83333333  0.47108954
   0.58333333  0.83333333  0.47108954
   0.25000000  0.00000000  0.41326863
   0.50000000  0.00000000  0.41326863
   0.75000000  0.00000000  0.41326863
   0.00000000  0.25000000  0.41326863
   0.25000000  0.25000000  0.41326863
   0.50000000  0.25000000  0.41326863
   0.75000000  0.25000000  0.41326863
   0.00000000  0.50000000  0.41326863
   0.25000000  0.50000000  0.41326863
   0.50000000  0.50000000  0.41326863
   0.75000000  0.50000000  0.41326863
   0.00000000  0.75000000  0.41326863
   0.25000000  0.75000000  0.41326863
   0.50000000  0.75000000  0.41326863
   0.75000000  0.75000000  0.41326863
   0.08333333  0.08333333  0.47108954
   0.33333333  0.08333333  0.47108954
   0.58333333  0.08333333  0.47108954
   0.83333333  0.08333333  0.47108954
   0.08333333  0.33333333  0.47108954
   0.33333333  0.33333333  0.47108954
   0.58333333  0.33333333  0.47108954
   0.83333333  0.33333333  0.47108954
   0.08333333  0.58333333  0.47108954
   0.33333333  0.58333333  0.47108954
   0.58333333  0.58333333  0.47108954
   0.83333333  0.58333333  0.47108954
   0.08333333  0.83333333  0.47108954
   0.33333333  0.83333333  0.47108954
   0.50562795  0.73874410  0.58270305
   0.75562795  0.73874410  0.58270305
