  66  66   1   0
  0.5034361E+02  0.1028133E-08  0.1028133E-08  0.3629601E-08  0.5000000E-15
   1.0000000000000000E-004
  CAR 
 50% Au CO adsorption                    
      9.65108459    -76.66792708  301     -1.81451311      1.00000000
    -76.668  0.0000E+00  0.0000E+00
    -76.380  0.0000E+00  0.0000E+00
    -76.092  0.0000E+00  0.0000E+00
    -75.805  0.0000E+00  0.0000E+00
    -75.517  0.0000E+00  0.0000E+00
    -75.229  0.0000E+00  0.0000E+00
    -74.942  0.0000E+00  0.0000E+00
    -74.654  0.0000E+00  0.0000E+00
    -74.366  0.0000E+00  0.0000E+00
    -74.078  0.0000E+00  0.0000E+00
    -73.791 -0.5849E-48 -0.1683E-48
    -73.503 -0.1518E-25 -0.4367E-26
    -73.215 -0.2077E-10 -0.5976E-11
    -72.927 -0.9218E-03 -0.2652E-03
    -72.640  0.6777E-01  0.1924E-01
    -72.352  0.1440E+00  0.6067E-01
    -72.064 -0.4684E-02  0.5932E-01
    -71.777  0.1220E+01  0.4104E+00
    -71.489  0.7957E+01  0.2700E+01
    -71.201  0.2305E+01  0.3363E+01
    -70.913 -0.1063E-01  0.3360E+01
    -70.626 -0.1077E-09  0.3360E+01
    -70.338  0.0000E+00  0.3360E+01
    -70.050  0.0000E+00  0.3360E+01
    -69.762  0.0000E+00  0.3360E+01
    -69.475  0.0000E+00  0.3360E+01
    -69.187  0.0000E+00  0.3360E+01
    -68.899  0.0000E+00  0.3360E+01
    -68.611  0.0000E+00  0.3360E+01
    -68.324  0.0000E+00  0.3360E+01
    -68.036  0.0000E+00  0.3360E+01
    -67.748  0.0000E+00  0.3360E+01
    -67.461  0.0000E+00  0.3360E+01
    -67.173  0.0000E+00  0.3360E+01
    -66.885  0.0000E+00  0.3360E+01
    -66.597  0.0000E+00  0.3360E+01
    -66.310  0.0000E+00  0.3360E+01
    -66.022  0.0000E+00  0.3360E+01
    -65.734  0.0000E+00  0.3360E+01
    -65.446  0.0000E+00  0.3360E+01
    -65.159  0.0000E+00  0.3360E+01
    -64.871  0.0000E+00  0.3360E+01
    -64.583  0.0000E+00  0.3360E+01
    -64.296  0.0000E+00  0.3360E+01
    -64.008  0.0000E+00  0.3360E+01
    -63.720  0.0000E+00  0.3360E+01
    -63.432  0.0000E+00  0.3360E+01
    -63.145  0.0000E+00  0.3360E+01
    -62.857  0.0000E+00  0.3360E+01
    -62.569  0.0000E+00  0.3360E+01
    -62.281  0.0000E+00  0.3360E+01
    -61.994  0.0000E+00  0.3360E+01
    -61.706  0.0000E+00  0.3360E+01
    -61.418  0.0000E+00  0.3360E+01
    -61.131  0.0000E+00  0.3360E+01
    -60.843  0.0000E+00  0.3360E+01
    -60.555  0.0000E+00  0.3360E+01
    -60.267  0.0000E+00  0.3360E+01
    -59.980  0.0000E+00  0.3360E+01
    -59.692  0.0000E+00  0.3360E+01
    -59.404  0.0000E+00  0.3360E+01
    -59.116  0.0000E+00  0.3360E+01
    -58.829  0.0000E+00  0.3360E+01
    -58.541  0.0000E+00  0.3360E+01
    -58.253  0.0000E+00  0.3360E+01
    -57.965  0.0000E+00  0.3360E+01
    -57.678  0.0000E+00  0.3360E+01
    -57.390  0.0000E+00  0.3360E+01
    -57.102  0.0000E+00  0.3360E+01
    -56.815  0.0000E+00  0.3360E+01
    -56.527  0.0000E+00  0.3360E+01
    -56.239  0.0000E+00  0.3360E+01
    -55.951  0.0000E+00  0.3360E+01
    -55.664  0.0000E+00  0.3360E+01
    -55.376  0.0000E+00  0.3360E+01
    -55.088  0.0000E+00  0.3360E+01
    -54.800  0.0000E+00  0.3360E+01
    -54.513  0.0000E+00  0.3360E+01
    -54.225  0.0000E+00  0.3360E+01
    -53.937  0.0000E+00  0.3360E+01
    -53.650  0.0000E+00  0.3360E+01
    -53.362  0.0000E+00  0.3360E+01
    -53.074  0.0000E+00  0.3360E+01
    -52.786  0.0000E+00  0.3360E+01
    -52.499  0.0000E+00  0.3360E+01
    -52.211  0.0000E+00  0.3360E+01
    -51.923  0.0000E+00  0.3360E+01
    -51.635  0.0000E+00  0.3360E+01
    -51.348  0.0000E+00  0.3360E+01
    -51.060  0.0000E+00  0.3360E+01
    -50.772  0.0000E+00  0.3360E+01
    -50.484  0.0000E+00  0.3360E+01
    -50.197  0.0000E+00  0.3360E+01
    -49.909  0.0000E+00  0.3360E+01
    -49.621  0.0000E+00  0.3360E+01
    -49.334  0.0000E+00  0.3360E+01
    -49.046  0.0000E+00  0.3360E+01
    -48.758  0.0000E+00  0.3360E+01
    -48.470  0.0000E+00  0.3360E+01
    -48.183  0.0000E+00  0.3360E+01
    -47.895  0.0000E+00  0.3360E+01
    -47.607  0.0000E+00  0.3360E+01
    -47.319  0.0000E+00  0.3360E+01
    -47.032  0.0000E+00  0.3360E+01
    -46.744  0.0000E+00  0.3360E+01
    -46.456  0.0000E+00  0.3360E+01
    -46.169  0.0000E+00  0.3360E+01
    -45.881  0.0000E+00  0.3360E+01
    -45.593  0.0000E+00  0.3360E+01
    -45.305  0.0000E+00  0.3360E+01
    -45.018  0.0000E+00  0.3360E+01
    -44.730  0.0000E+00  0.3360E+01
    -44.442  0.0000E+00  0.3360E+01
    -44.154  0.0000E+00  0.3360E+01
    -43.867  0.0000E+00  0.3360E+01
    -43.579  0.0000E+00  0.3360E+01
    -43.291  0.0000E+00  0.3360E+01
    -43.004  0.0000E+00  0.3360E+01
    -42.716  0.0000E+00  0.3360E+01
    -42.428  0.0000E+00  0.3360E+01
    -42.140  0.0000E+00  0.3360E+01
    -41.853  0.0000E+00  0.3360E+01
    -41.565  0.0000E+00  0.3360E+01
    -41.277  0.0000E+00  0.3360E+01
    -40.989  0.0000E+00  0.3360E+01
    -40.702  0.0000E+00  0.3360E+01
    -40.414  0.0000E+00  0.3360E+01
    -40.126  0.0000E+00  0.3360E+01
    -39.838  0.0000E+00  0.3360E+01
    -39.551  0.0000E+00  0.3360E+01
    -39.263  0.0000E+00  0.3360E+01
    -38.975  0.0000E+00  0.3360E+01
    -38.688  0.0000E+00  0.3360E+01
    -38.400  0.0000E+00  0.3360E+01
    -38.112  0.0000E+00  0.3360E+01
    -37.824  0.0000E+00  0.3360E+01
    -37.537  0.0000E+00  0.3360E+01
    -37.249  0.0000E+00  0.3360E+01
    -36.961  0.0000E+00  0.3360E+01
    -36.673  0.0000E+00  0.3360E+01
    -36.386  0.0000E+00  0.3360E+01
    -36.098  0.0000E+00  0.3360E+01
    -35.810  0.0000E+00  0.3360E+01
    -35.523  0.0000E+00  0.3360E+01
    -35.235  0.0000E+00  0.3360E+01
    -34.947  0.0000E+00  0.3360E+01
    -34.659  0.0000E+00  0.3360E+01
    -34.372  0.0000E+00  0.3360E+01
    -34.084  0.0000E+00  0.3360E+01
    -33.796  0.0000E+00  0.3360E+01
    -33.508  0.0000E+00  0.3360E+01
    -33.221  0.0000E+00  0.3360E+01
    -32.933  0.0000E+00  0.3360E+01
    -32.645  0.0000E+00  0.3360E+01
    -32.358  0.0000E+00  0.3360E+01
    -32.070  0.0000E+00  0.3360E+01
    -31.782  0.0000E+00  0.3360E+01
    -31.494  0.0000E+00  0.3360E+01
    -31.207  0.0000E+00  0.3360E+01
    -30.919  0.0000E+00  0.3360E+01
    -30.631  0.0000E+00  0.3360E+01
    -30.343  0.0000E+00  0.3360E+01
    -30.056  0.0000E+00  0.3360E+01
    -29.768  0.0000E+00  0.3360E+01
    -29.480  0.0000E+00  0.3360E+01
    -29.192  0.0000E+00  0.3360E+01
    -28.905  0.0000E+00  0.3360E+01
    -28.617  0.0000E+00  0.3360E+01
    -28.329  0.0000E+00  0.3360E+01
    -28.042  0.0000E+00  0.3360E+01
    -27.754  0.0000E+00  0.3360E+01
    -27.466  0.0000E+00  0.3360E+01
    -27.178 -0.1173E-50  0.3360E+01
    -26.891 -0.1670E-27  0.3360E+01
    -26.603 -0.1276E-11  0.3360E+01
    -26.315 -0.3632E-03  0.3360E+01
    -26.027  0.6826E-01  0.3380E+01
    -25.740  0.1617E-02  0.3380E+01
    -25.452 -0.1255E-06  0.3380E+01
    -25.164  0.0000E+00  0.3380E+01
    -24.877  0.0000E+00  0.3380E+01
    -24.589  0.0000E+00  0.3380E+01
    -24.301  0.0000E+00  0.3380E+01
    -24.013  0.0000E+00  0.3380E+01
    -23.726  0.0000E+00  0.3380E+01
    -23.438  0.0000E+00  0.3380E+01
    -23.150  0.0000E+00  0.3380E+01
    -22.862  0.0000E+00  0.3380E+01
    -22.575  0.0000E+00  0.3380E+01
    -22.287  0.0000E+00  0.3380E+01
    -21.999  0.0000E+00  0.3380E+01
    -21.711  0.0000E+00  0.3380E+01
    -21.424  0.0000E+00  0.3380E+01
    -21.136  0.0000E+00  0.3380E+01
    -20.848  0.0000E+00  0.3380E+01
    -20.561  0.0000E+00  0.3380E+01
    -20.273  0.0000E+00  0.3380E+01
    -19.985  0.0000E+00  0.3380E+01
    -19.697  0.0000E+00  0.3380E+01
    -19.410  0.0000E+00  0.3380E+01
    -19.122  0.0000E+00  0.3380E+01
    -18.834  0.0000E+00  0.3380E+01
    -18.546  0.0000E+00  0.3380E+01
    -18.259  0.0000E+00  0.3380E+01
    -17.971  0.0000E+00  0.3380E+01
    -17.683  0.0000E+00  0.3380E+01
    -17.396  0.0000E+00  0.3380E+01
    -17.108  0.0000E+00  0.3380E+01
    -16.820  0.0000E+00  0.3380E+01
    -16.532  0.0000E+00  0.3380E+01
    -16.245  0.0000E+00  0.3380E+01
    -15.957  0.0000E+00  0.3380E+01
    -15.669  0.0000E+00  0.3380E+01
    -15.381  0.0000E+00  0.3380E+01
    -15.094  0.0000E+00  0.3380E+01
    -14.806  0.0000E+00  0.3380E+01
    -14.518  0.0000E+00  0.3380E+01
    -14.231  0.0000E+00  0.3380E+01
    -13.943  0.0000E+00  0.3380E+01
    -13.655  0.0000E+00  0.3380E+01
    -13.367  0.0000E+00  0.3380E+01
    -13.080 -0.1614E-47  0.3380E+01
    -12.792 -0.2864E-25  0.3380E+01
    -12.504 -0.2896E-10  0.3380E+01
    -12.216 -0.9999E-03  0.3380E+01
    -11.929  0.7266E-01  0.3401E+01
    -11.641 -0.2148E-02  0.3400E+01
    -11.353 -0.1770E-06  0.3400E+01
    -11.065  0.1514E-02  0.3400E+01
    -10.778  0.4273E-01  0.3413E+01
    -10.490  0.1673E-01  0.3418E+01
    -10.202  0.5861E-01  0.3434E+01
     -9.915  0.5254E-01  0.3450E+01
     -9.627  0.7869E-01  0.3472E+01
     -9.339  0.1350E+00  0.3511E+01
     -9.051  0.1366E+00  0.3550E+01
     -8.764  0.1785E+00  0.3602E+01
     -8.476  0.3043E+00  0.3689E+01
     -8.188  0.2270E+00  0.3755E+01
     -7.900  0.2060E+00  0.3814E+01
     -7.613  0.3149E+00  0.3904E+01
     -7.325  0.3434E+00  0.4003E+01
     -7.037  0.3107E+00  0.4093E+01
     -6.750  0.4632E+00  0.4226E+01
     -6.462  0.4947E+00  0.4368E+01
     -6.174  0.8794E+00  0.4621E+01
     -5.886  0.1228E+01  0.4975E+01
     -5.599  0.1294E+01  0.5347E+01
     -5.311  0.1264E+01  0.5711E+01
     -5.023  0.1461E+01  0.6131E+01
     -4.735  0.1865E+01  0.6668E+01
     -4.448  0.2356E+01  0.7345E+01
     -4.160  0.1934E+01  0.7902E+01
     -3.872  0.2074E+01  0.8499E+01
     -3.584  0.2336E+01  0.9171E+01
     -3.297  0.2886E+01  0.1000E+02
     -3.009  0.7293E+00  0.1021E+02
     -2.721  0.2764E+00  0.1029E+02
     -2.434  0.3216E+00  0.1038E+02
     -2.146  0.1141E+00  0.1042E+02
     -1.858  0.2471E+00  0.1049E+02
     -1.570  0.1566E+00  0.1053E+02
     -1.283  0.2892E+00  0.1062E+02
     -0.995  0.2230E+00  0.1068E+02
     -0.707  0.1270E+00  0.1072E+02
     -0.419  0.1915E+00  0.1077E+02
     -0.132  0.2574E+00  0.1085E+02
      0.156  0.2043E+00  0.1090E+02
      0.444  0.1457E+00  0.1095E+02
      0.731  0.2388E+00  0.1101E+02
      1.019  0.2203E+00  0.1108E+02
      1.307  0.1511E+00  0.1112E+02
      1.595  0.5257E-01  0.1114E+02
      1.882  0.1310E+00  0.1117E+02
      2.170  0.1980E+00  0.1123E+02
      2.458  0.1389E+00  0.1127E+02
      2.746  0.2090E+00  0.1133E+02
      3.033  0.2672E+00  0.1141E+02
      3.321  0.2784E+00  0.1149E+02
      3.609  0.3930E+00  0.1160E+02
      3.896  0.4694E+00  0.1174E+02
      4.184  0.3236E+00  0.1183E+02
      4.472  0.5335E+00  0.1198E+02
      4.760  0.4323E+00  0.1211E+02
      5.047  0.4720E+00  0.1224E+02
      5.335  0.4689E+00  0.1238E+02
      5.623  0.5686E+00  0.1254E+02
      5.911  0.2032E+00  0.1260E+02
      6.198 -0.1050E-02  0.1260E+02
      6.486 -0.1411E-10  0.1260E+02
      6.774  0.0000E+00  0.1260E+02
      7.062  0.0000E+00  0.1260E+02
      7.349  0.0000E+00  0.1260E+02
      7.637  0.0000E+00  0.1260E+02
      7.925  0.0000E+00  0.1260E+02
      8.212  0.0000E+00  0.1260E+02
      8.500  0.0000E+00  0.1260E+02
      8.788  0.0000E+00  0.1260E+02
      9.076  0.0000E+00  0.1260E+02
      9.363  0.0000E+00  0.1260E+02
      9.651  0.0000E+00  0.1260E+02
      9.65108459    -76.66792708  301     -1.81451311      1.00000000
    -76.668  0.0000E+00  0.0000E+00  0.0000E+00  0.0000E+00  0.0000E+00  0.0000E+00  0.0000E+00  0.0000E+00  0.0000E+00
    -76.380  0.0000E+00  0.0000E+00  0.0000E+00  0.0000E+00  0.0000E+00  0.0000E+00  0.0000E+00  0.0000E+00  0.0000E+00
    -76.092  0.0000E+00  0.0000E+00  0.0000E+00  0.0000E+00  0.0000E+00  0.0000E+00  0.0000E+00  0.0000E+00  0.0000E+00
    -75.805  0.0000E+00  0.0000E+00  0.0000E+00  0.0000E+00  0.0000E+00  0.0000E+00  0.0000E+00  0.0000E+00  0.0000E+00
    -75.517  0.0000E+00  0.0000E+00  0.0000E+00  0.0000E+00  0.0000E+00  0.0000E+00  0.0000E+00  0.0000E+00  0.0000E+00
    -75.229  0.0000E+00  0.0000E+00  0.0000E+00  0.0000E+00  0.0000E+00  0.0000E+00  0.0000E+00  0.0000E+00  0.0000E+00
    -74.942  0.0000E+00  0.0000E+00  0.0000E+00  0.0000E+00  0.0000E+00  0.0000E+00  0.0000E+00  0.0000E+00  0.0000E+00
    -74.654  0.0000E+00  0.0000E+00  0.0000E+00  0.0000E+00  0.0000E+00  0.0000E+00  0.0000E+00  0.0000E+00  0.0000E+00
    -74.366  0.0000E+00  0.0000E+00  0.0000E+00  0.0000E+00  0.0000E+00  0.0000E+00  0.0000E+00  0.0000E+00  0.0000E+00
    -74.078  0.0000E+00  0.0000E+00  0.0000E+00  0.0000E+00  0.0000E+00  0.0000E+00  0.0000E+00  0.0000E+00  0.0000E+00
    -73.791 -0.3318E-57 -0.1683E-56 -0.2166E-58 -0.1600E-56 -0.6288E-57 -0.3272E-58 -0.7067E-57 -0.2136E-58 -0.1242E-56
    -73.503 -0.8612E-35 -0.4369E-34 -0.5618E-36 -0.4151E-34 -0.1633E-34 -0.8489E-36 -0.1834E-34 -0.5542E-36 -0.3224E-34
    -73.215 -0.1178E-19 -0.5980E-19 -0.7680E-21 -0.5680E-19 -0.2235E-19 -0.1161E-20 -0.2510E-19 -0.7583E-21 -0.4411E-19
    -72.927 -0.5231E-12 -0.2655E-11 -0.3406E-13 -0.2521E-11 -0.9925E-12 -0.5153E-13 -0.1114E-11 -0.3365E-13 -0.1958E-11
    -72.640  0.8941E-11  0.1565E-09  0.1129E-11  0.1445E-09  0.5533E-10  0.1685E-12  0.6582E-10  0.2214E-11  0.3868E-10
    -72.352  0.1010E-08  0.1631E-08  0.4947E-10  0.1669E-08  0.6962E-09  0.1242E-09  0.6595E-09  0.1346E-10  0.3680E-08
    -72.064 -0.4421E-08 -0.4664E-08 -0.4818E-09 -0.1609E-08 -0.5309E-08 -0.7061E-09 -0.2771E-08 -0.9683E-10 -0.1691E-08
    -71.777  0.3635E-05  0.2645E-05  0.1627E-05  0.2883E-06  0.9544E-06  0.2358E-05  0.9342E-06 -0.1015E-06  0.8630E-06
    -71.489  0.7188E-04  0.6935E-04  0.1849E-04  0.2566E-04  0.7602E-04  0.1945E-04  0.4471E-04  0.1241E-04  0.2796E-04
    -71.201 -0.9159E-06 -0.8495E-06 -0.2542E-06 -0.4037E-06 -0.1127E-05 -0.2160E-06 -0.5845E-06 -0.3054E-06 -0.3490E-06
    -70.913 -0.5372E-11 -0.6133E-11 -0.2941E-10 -0.4855E-11 -0.2279E-11 -0.1251E-10 -0.2604E-10 -0.1311E-10 -0.2166E-11
    -70.626 -0.5273E-19 -0.6145E-19 -0.4069E-18 -0.4694E-19 -0.1461E-19 -0.1114E-18 -0.3041E-18 -0.1448E-18 -0.1885E-19
    -70.338  0.0000E+00  0.0000E+00  0.0000E+00  0.0000E+00  0.0000E+00  0.0000E+00  0.0000E+00  0.0000E+00  0.0000E+00
    -70.050  0.0000E+00  0.0000E+00  0.0000E+00  0.0000E+00  0.0000E+00  0.0000E+00  0.0000E+00  0.0000E+00  0.0000E+00
    -69.762  0.0000E+00  0.0000E+00  0.0000E+00  0.0000E+00  0.0000E+00  0.0000E+00  0.0000E+00  0.0000E+00  0.0000E+00
    -69.475  0.0000E+00  0.0000E+00  0.0000E+00  0.0000E+00  0.0000E+00  0.0000E+00  0.0000E+00  0.0000E+00  0.0000E+00
    -69.187  0.0000E+00  0.0000E+00  0.0000E+00  0.0000E+00  0.0000E+00  0.0000E+00  0.0000E+00  0.0000E+00  0.0000E+00
    -68.899  0.0000E+00  0.0000E+00  0.0000E+00  0.0000E+00  0.0000E+00  0.0000E+00  0.0000E+00  0.0000E+00  0.0000E+00
    -68.611  0.0000E+00  0.0000E+00  0.0000E+00  0.0000E+00  0.0000E+00  0.0000E+00  0.0000E+00  0.0000E+00  0.0000E+00
    -68.324  0.0000E+00  0.0000E+00  0.0000E+00  0.0000E+00  0.0000E+00  0.0000E+00  0.0000E+00  0.0000E+00  0.0000E+00
    -68.036  0.0000E+00  0.0000E+00  0.0000E+00  0.0000E+00  0.0000E+00  0.0000E+00  0.0000E+00  0.0000E+00  0.0000E+00
    -67.748  0.0000E+00  0.0000E+00  0.0000E+00  0.0000E+00  0.0000E+00  0.0000E+00  0.0000E+00  0.0000E+00  0.0000E+00
    -67.461  0.0000E+00  0.0000E+00  0.0000E+00  0.0000E+00  0.0000E+00  0.0000E+00  0.0000E+00  0.0000E+00  0.0000E+00
    -67.173  0.0000E+00  0.0000E+00  0.0000E+00  0.0000E+00  0.0000E+00  0.0000E+00  0.0000E+00  0.0000E+00  0.0000E+00
    -66.885  0.0000E+00  0.0000E+00  0.0000E+00  0.0000E+00  0.0000E+00  0.0000E+00  0.0000E+00  0.0000E+00  0.0000E+00
    -66.597  0.0000E+00  0.0000E+00  0.0000E+00  0.0000E+00  0.0000E+00  0.0000E+00  0.0000E+00  0.0000E+00  0.0000E+00
    -66.310  0.0000E+00  0.0000E+00  0.0000E+00  0.0000E+00  0.0000E+00  0.0000E+00  0.0000E+00  0.0000E+00  0.0000E+00
    -66.022  0.0000E+00  0.0000E+00  0.0000E+00  0.0000E+00  0.0000E+00  0.0000E+00  0.0000E+00  0.0000E+00  0.0000E+00
    -65.734  0.0000E+00  0.0000E+00  0.0000E+00  0.0000E+00  0.0000E+00  0.0000E+00  0.0000E+00  0.0000E+00  0.0000E+00
    -65.446  0.0000E+00  0.0000E+00  0.0000E+00  0.0000E+00  0.0000E+00  0.0000E+00  0.0000E+00  0.0000E+00  0.0000E+00
    -65.159  0.0000E+00  0.0000E+00  0.0000E+00  0.0000E+00  0.0000E+00  0.0000E+00  0.0000E+00  0.0000E+00  0.0000E+00
    -64.871  0.0000E+00  0.0000E+00  0.0000E+00  0.0000E+00  0.0000E+00  0.0000E+00  0.0000E+00  0.0000E+00  0.0000E+00
    -64.583  0.0000E+00  0.0000E+00  0.0000E+00  0.0000E+00  0.0000E+00  0.0000E+00  0.0000E+00  0.0000E+00  0.0000E+00
    -64.296  0.0000E+00  0.0000E+00  0.0000E+00  0.0000E+00  0.0000E+00  0.0000E+00  0.0000E+00  0.0000E+00  0.0000E+00
    -64.008  0.0000E+00  0.0000E+00  0.0000E+00  0.0000E+00  0.0000E+00  0.0000E+00  0.0000E+00  0.0000E+00  0.0000E+00
    -63.720  0.0000E+00  0.0000E+00  0.0000E+00  0.0000E+00  0.0000E+00  0.0000E+00  0.0000E+00  0.0000E+00  0.0000E+00
    -63.432  0.0000E+00  0.0000E+00  0.0000E+00  0.0000E+00  0.0000E+00  0.0000E+00  0.0000E+00  0.0000E+00  0.0000E+00
    -63.145  0.0000E+00  0.0000E+00  0.0000E+00  0.0000E+00  0.0000E+00  0.0000E+00  0.0000E+00  0.0000E+00  0.0000E+00
    -62.857  0.0000E+00  0.0000E+00  0.0000E+00  0.0000E+00  0.0000E+00  0.0000E+00  0.0000E+00  0.0000E+00  0.0000E+00
    -62.569  0.0000E+00  0.0000E+00  0.0000E+00  0.0000E+00  0.0000E+00  0.0000E+00  0.0000E+00  0.0000E+00  0.0000E+00
    -62.281  0.0000E+00  0.0000E+00  0.0000E+00  0.0000E+00  0.0000E+00  0.0000E+00  0.0000E+00  0.0000E+00  0.0000E+00
    -61.994  0.0000E+00  0.0000E+00  0.0000E+00  0.0000E+00  0.0000E+00  0.0000E+00  0.0000E+00  0.0000E+00  0.0000E+00
    -61.706  0.0000E+00  0.0000E+00  0.0000E+00  0.0000E+00  0.0000E+00  0.0000E+00  0.0000E+00  0.0000E+00  0.0000E+00
    -61.418  0.0000E+00  0.0000E+00  0.0000E+00  0.0000E+00  0.0000E+00  0.0000E+00  0.0000E+00  0.0000E+00  0.0000E+00
    -61.131  0.0000E+00  0.0000E+00  0.0000E+00  0.0000E+00  0.0000E+00  0.0000E+00  0.0000E+00  0.0000E+00  0.0000E+00
    -60.843  0.0000E+00  0.0000E+00  0.0000E+00  0.0000E+00  0.0000E+00  0.0000E+00  0.0000E+00  0.0000E+00  0.0000E+00
    -60.555  0.0000E+00  0.0000E+00  0.0000E+00  0.0000E+00  0.0000E+00  0.0000E+00  0.0000E+00  0.0000E+00  0.0000E+00
    -60.267  0.0000E+00  0.0000E+00  0.0000E+00  0.0000E+00  0.0000E+00  0.0000E+00  0.0000E+00  0.0000E+00  0.0000E+00
    -59.980  0.0000E+00  0.0000E+00  0.0000E+00  0.0000E+00  0.0000E+00  0.0000E+00  0.0000E+00  0.0000E+00  0.0000E+00
    -59.692  0.0000E+00  0.0000E+00  0.0000E+00  0.0000E+00  0.0000E+00  0.0000E+00  0.0000E+00  0.0000E+00  0.0000E+00
    -59.404  0.0000E+00  0.0000E+00  0.0000E+00  0.0000E+00  0.0000E+00  0.0000E+00  0.0000E+00  0.0000E+00  0.0000E+00
    -59.116  0.0000E+00  0.0000E+00  0.0000E+00  0.0000E+00  0.0000E+00  0.0000E+00  0.0000E+00  0.0000E+00  0.0000E+00
    -58.829  0.0000E+00  0.0000E+00  0.0000E+00  0.0000E+00  0.0000E+00  0.0000E+00  0.0000E+00  0.0000E+00  0.0000E+00
    -58.541  0.0000E+00  0.0000E+00  0.0000E+00  0.0000E+00  0.0000E+00  0.0000E+00  0.0000E+00  0.0000E+00  0.0000E+00
    -58.253  0.0000E+00  0.0000E+00  0.0000E+00  0.0000E+00  0.0000E+00  0.0000E+00  0.0000E+00  0.0000E+00  0.0000E+00
    -57.965  0.0000E+00  0.0000E+00  0.0000E+00  0.0000E+00  0.0000E+00  0.0000E+00  0.0000E+00  0.0000E+00  0.0000E+00
    -57.678  0.0000E+00  0.0000E+00  0.0000E+00  0.0000E+00  0.0000E+00  0.0000E+00  0.0000E+00  0.0000E+00  0.0000E+00
    -57.390  0.0000E+00  0.0000E+00  0.0000E+00  0.0000E+00  0.0000E+00  0.0000E+00  0.0000E+00  0.0000E+00  0.0000E+00
    -57.102  0.0000E+00  0.0000E+00  0.0000E+00  0.0000E+00  0.0000E+00  0.0000E+00  0.0000E+00  0.0000E+00  0.0000E+00
    -56.815  0.0000E+00  0.0000E+00  0.0000E+00  0.0000E+00  0.0000E+00  0.0000E+00  0.0000E+00  0.0000E+00  0.0000E+00
    -56.527  0.0000E+00  0.0000E+00  0.0000E+00  0.0000E+00  0.0000E+00  0.0000E+00  0.0000E+00  0.0000E+00  0.0000E+00
    -56.239  0.0000E+00  0.0000E+00  0.0000E+00  0.0000E+00  0.0000E+00  0.0000E+00  0.0000E+00  0.0000E+00  0.0000E+00
    -55.951  0.0000E+00  0.0000E+00  0.0000E+00  0.0000E+00  0.0000E+00  0.0000E+00  0.0000E+00  0.0000E+00  0.0000E+00
    -55.664  0.0000E+00  0.0000E+00  0.0000E+00  0.0000E+00  0.0000E+00  0.0000E+00  0.0000E+00  0.0000E+00  0.0000E+00
    -55.376  0.0000E+00  0.0000E+00  0.0000E+00  0.0000E+00  0.0000E+00  0.0000E+00  0.0000E+00  0.0000E+00  0.0000E+00
    -55.088  0.0000E+00  0.0000E+00  0.0000E+00  0.0000E+00  0.0000E+00  0.0000E+00  0.0000E+00  0.0000E+00  0.0000E+00
    -54.800  0.0000E+00  0.0000E+00  0.0000E+00  0.0000E+00  0.0000E+00  0.0000E+00  0.0000E+00  0.0000E+00  0.0000E+00
    -54.513  0.0000E+00  0.0000E+00  0.0000E+00  0.0000E+00  0.0000E+00  0.0000E+00  0.0000E+00  0.0000E+00  0.0000E+00
    -54.225  0.0000E+00  0.0000E+00  0.0000E+00  0.0000E+00  0.0000E+00  0.0000E+00  0.0000E+00  0.0000E+00  0.0000E+00
    -53.937  0.0000E+00  0.0000E+00  0.0000E+00  0.0000E+00  0.0000E+00  0.0000E+00  0.0000E+00  0.0000E+00  0.0000E+00
    -53.650  0.0000E+00  0.0000E+00  0.0000E+00  0.0000E+00  0.0000E+00  0.0000E+00  0.0000E+00  0.0000E+00  0.0000E+00
    -53.362  0.0000E+00  0.0000E+00  0.0000E+00  0.0000E+00  0.0000E+00  0.0000E+00  0.0000E+00  0.0000E+00  0.0000E+00
    -53.074  0.0000E+00  0.0000E+00  0.0000E+00  0.0000E+00  0.0000E+00  0.0000E+00  0.0000E+00  0.0000E+00  0.0000E+00
    -52.786  0.0000E+00  0.0000E+00  0.0000E+00  0.0000E+00  0.0000E+00  0.0000E+00  0.0000E+00  0.0000E+00  0.0000E+00
    -52.499  0.0000E+00  0.0000E+00  0.0000E+00  0.0000E+00  0.0000E+00  0.0000E+00  0.0000E+00  0.0000E+00  0.0000E+00
    -52.211  0.0000E+00  0.0000E+00  0.0000E+00  0.0000E+00  0.0000E+00  0.0000E+00  0.0000E+00  0.0000E+00  0.0000E+00
    -51.923  0.0000E+00  0.0000E+00  0.0000E+00  0.0000E+00  0.0000E+00  0.0000E+00  0.0000E+00  0.0000E+00  0.0000E+00
    -51.635  0.0000E+00  0.0000E+00  0.0000E+00  0.0000E+00  0.0000E+00  0.0000E+00  0.0000E+00  0.0000E+00  0.0000E+00
    -51.348  0.0000E+00  0.0000E+00  0.0000E+00  0.0000E+00  0.0000E+00  0.0000E+00  0.0000E+00  0.0000E+00  0.0000E+00
    -51.060  0.0000E+00  0.0000E+00  0.0000E+00  0.0000E+00  0.0000E+00  0.0000E+00  0.0000E+00  0.0000E+00  0.0000E+00
    -50.772  0.0000E+00  0.0000E+00  0.0000E+00  0.0000E+00  0.0000E+00  0.0000E+00  0.0000E+00  0.0000E+00  0.0000E+00
    -50.484  0.0000E+00  0.0000E+00  0.0000E+00  0.0000E+00  0.0000E+00  0.0000E+00  0.0000E+00  0.0000E+00  0.0000E+00
    -50.197  0.0000E+00  0.0000E+00  0.0000E+00  0.0000E+00  0.0000E+00  0.0000E+00  0.0000E+00  0.0000E+00  0.0000E+00
    -49.909  0.0000E+00  0.0000E+00  0.0000E+00  0.0000E+00  0.0000E+00  0.0000E+00  0.0000E+00  0.0000E+00  0.0000E+00
    -49.621  0.0000E+00  0.0000E+00  0.0000E+00  0.0000E+00  0.0000E+00  0.0000E+00  0.0000E+00  0.0000E+00  0.0000E+00
    -49.334  0.0000E+00  0.0000E+00  0.0000E+00  0.0000E+00  0.0000E+00  0.0000E+00  0.0000E+00  0.0000E+00  0.0000E+00
    -49.046  0.0000E+00  0.0000E+00  0.0000E+00  0.0000E+00  0.0000E+00  0.0000E+00  0.0000E+00  0.0000E+00  0.0000E+00
    -48.758  0.0000E+00  0.0000E+00  0.0000E+00  0.0000E+00  0.0000E+00  0.0000E+00  0.0000E+00  0.0000E+00  0.0000E+00
    -48.470  0.0000E+00  0.0000E+00  0.0000E+00  0.0000E+00  0.0000E+00  0.0000E+00  0.0000E+00  0.0000E+00  0.0000E+00
    -48.183  0.0000E+00  0.0000E+00  0.0000E+00  0.0000E+00  0.0000E+00  0.0000E+00  0.0000E+00  0.0000E+00  0.0000E+00
    -47.895  0.0000E+00  0.0000E+00  0.0000E+00  0.0000E+00  0.0000E+00  0.0000E+00  0.0000E+00  0.0000E+00  0.0000E+00
    -47.607  0.0000E+00  0.0000E+00  0.0000E+00  0.0000E+00  0.0000E+00  0.0000E+00  0.0000E+00  0.0000E+00  0.0000E+00
    -47.319  0.0000E+00  0.0000E+00  0.0000E+00  0.0000E+00  0.0000E+00  0.0000E+00  0.0000E+00  0.0000E+00  0.0000E+00
    -47.032  0.0000E+00  0.0000E+00  0.0000E+00  0.0000E+00  0.0000E+00  0.0000E+00  0.0000E+00  0.0000E+00  0.0000E+00
    -46.744  0.0000E+00  0.0000E+00  0.0000E+00  0.0000E+00  0.0000E+00  0.0000E+00  0.0000E+00  0.0000E+00  0.0000E+00
    -46.456  0.0000E+00  0.0000E+00  0.0000E+00  0.0000E+00  0.0000E+00  0.0000E+00  0.0000E+00  0.0000E+00  0.0000E+00
    -46.169  0.0000E+00  0.0000E+00  0.0000E+00  0.0000E+00  0.0000E+00  0.0000E+00  0.0000E+00  0.0000E+00  0.0000E+00
    -45.881  0.0000E+00  0.0000E+00  0.0000E+00  0.0000E+00  0.0000E+00  0.0000E+00  0.0000E+00  0.0000E+00  0.0000E+00
    -45.593  0.0000E+00  0.0000E+00  0.0000E+00  0.0000E+00  0.0000E+00  0.0000E+00  0.0000E+00  0.0000E+00  0.0000E+00
    -45.305  0.0000E+00  0.0000E+00  0.0000E+00  0.0000E+00  0.0000E+00  0.0000E+00  0.0000E+00  0.0000E+00  0.0000E+00
    -45.018  0.0000E+00  0.0000E+00  0.0000E+00  0.0000E+00  0.0000E+00  0.0000E+00  0.0000E+00  0.0000E+00  0.0000E+00
    -44.730  0.0000E+00  0.0000E+00  0.0000E+00  0.0000E+00  0.0000E+00  0.0000E+00  0.0000E+00  0.0000E+00  0.0000E+00
    -44.442  0.0000E+00  0.0000E+00  0.0000E+00  0.0000E+00  0.0000E+00  0.0000E+00  0.0000E+00  0.0000E+00  0.0000E+00
    -44.154  0.0000E+00  0.0000E+00  0.0000E+00  0.0000E+00  0.0000E+00  0.0000E+00  0.0000E+00  0.0000E+00  0.0000E+00
    -43.867  0.0000E+00  0.0000E+00  0.0000E+00  0.0000E+00  0.0000E+00  0.0000E+00  0.0000E+00  0.0000E+00  0.0000E+00
    -43.579  0.0000E+00  0.0000E+00  0.0000E+00  0.0000E+00  0.0000E+00  0.0000E+00  0.0000E+00  0.0000E+00  0.0000E+00
    -43.291  0.0000E+00  0.0000E+00  0.0000E+00  0.0000E+00  0.0000E+00  0.0000E+00  0.0000E+00  0.0000E+00  0.0000E+00
    -43.004  0.0000E+00  0.0000E+00  0.0000E+00  0.0000E+00  0.0000E+00  0.0000E+00  0.0000E+00  0.0000E+00  0.0000E+00
    -42.716  0.0000E+00  0.0000E+00  0.0000E+00  0.0000E+00  0.0000E+00  0.0000E+00  0.0000E+00  0.0000E+00  0.0000E+00
    -42.428  0.0000E+00  0.0000E+00  0.0000E+00  0.0000E+00  0.0000E+00  0.0000E+00  0.0000E+00  0.0000E+00  0.0000E+00
    -42.140  0.0000E+00  0.0000E+00  0.0000E+00  0.0000E+00  0.0000E+00  0.0000E+00  0.0000E+00  0.0000E+00  0.0000E+00
    -41.853  0.0000E+00  0.0000E+00  0.0000E+00  0.0000E+00  0.0000E+00  0.0000E+00  0.0000E+00  0.0000E+00  0.0000E+00
    -41.565  0.0000E+00  0.0000E+00  0.0000E+00  0.0000E+00  0.0000E+00  0.0000E+00  0.0000E+00  0.0000E+00  0.0000E+00
    -41.277  0.0000E+00  0.0000E+00  0.0000E+00  0.0000E+00  0.0000E+00  0.0000E+00  0.0000E+00  0.0000E+00  0.0000E+00
    -40.989  0.0000E+00  0.0000E+00  0.0000E+00  0.0000E+00  0.0000E+00  0.0000E+00  0.0000E+00  0.0000E+00  0.0000E+00
    -40.702  0.0000E+00  0.0000E+00  0.0000E+00  0.0000E+00  0.0000E+00  0.0000E+00  0.0000E+00  0.0000E+00  0.0000E+00
    -40.414  0.0000E+00  0.0000E+00  0.0000E+00  0.0000E+00  0.0000E+00  0.0000E+00  0.0000E+00  0.0000E+00  0.0000E+00
    -40.126  0.0000E+00  0.0000E+00  0.0000E+00  0.0000E+00  0.0000E+00  0.0000E+00  0.0000E+00  0.0000E+00  0.0000E+00
    -39.838  0.0000E+00  0.0000E+00  0.0000E+00  0.0000E+00  0.0000E+00  0.0000E+00  0.0000E+00  0.0000E+00  0.0000E+00
    -39.551  0.0000E+00  0.0000E+00  0.0000E+00  0.0000E+00  0.0000E+00  0.0000E+00  0.0000E+00  0.0000E+00  0.0000E+00
    -39.263  0.0000E+00  0.0000E+00  0.0000E+00  0.0000E+00  0.0000E+00  0.0000E+00  0.0000E+00  0.0000E+00  0.0000E+00
    -38.975  0.0000E+00  0.0000E+00  0.0000E+00  0.0000E+00  0.0000E+00  0.0000E+00  0.0000E+00  0.0000E+00  0.0000E+00
    -38.688  0.0000E+00  0.0000E+00  0.0000E+00  0.0000E+00  0.0000E+00  0.0000E+00  0.0000E+00  0.0000E+00  0.0000E+00
    -38.400  0.0000E+00  0.0000E+00  0.0000E+00  0.0000E+00  0.0000E+00  0.0000E+00  0.0000E+00  0.0000E+00  0.0000E+00
    -38.112  0.0000E+00  0.0000E+00  0.0000E+00  0.0000E+00  0.0000E+00  0.0000E+00  0.0000E+00  0.0000E+00  0.0000E+00
    -37.824  0.0000E+00  0.0000E+00  0.0000E+00  0.0000E+00  0.0000E+00  0.0000E+00  0.0000E+00  0.0000E+00  0.0000E+00
    -37.537  0.0000E+00  0.0000E+00  0.0000E+00  0.0000E+00  0.0000E+00  0.0000E+00  0.0000E+00  0.0000E+00  0.0000E+00
    -37.249  0.0000E+00  0.0000E+00  0.0000E+00  0.0000E+00  0.0000E+00  0.0000E+00  0.0000E+00  0.0000E+00  0.0000E+00
    -36.961  0.0000E+00  0.0000E+00  0.0000E+00  0.0000E+00  0.0000E+00  0.0000E+00  0.0000E+00  0.0000E+00  0.0000E+00
    -36.673  0.0000E+00  0.0000E+00  0.0000E+00  0.0000E+00  0.0000E+00  0.0000E+00  0.0000E+00  0.0000E+00  0.0000E+00
    -36.386  0.0000E+00  0.0000E+00  0.0000E+00  0.0000E+00  0.0000E+00  0.0000E+00  0.0000E+00  0.0000E+00  0.0000E+00
    -36.098  0.0000E+00  0.0000E+00  0.0000E+00  0.0000E+00  0.0000E+00  0.0000E+00  0.0000E+00  0.0000E+00  0.0000E+00
    -35.810  0.0000E+00  0.0000E+00  0.0000E+00  0.0000E+00  0.0000E+00  0.0000E+00  0.0000E+00  0.0000E+00  0.0000E+00
    -35.523  0.0000E+00  0.0000E+00  0.0000E+00  0.0000E+00  0.0000E+00  0.0000E+00  0.0000E+00  0.0000E+00  0.0000E+00
    -35.235  0.0000E+00  0.0000E+00  0.0000E+00  0.0000E+00  0.0000E+00  0.0000E+00  0.0000E+00  0.0000E+00  0.0000E+00
    -34.947  0.0000E+00  0.0000E+00  0.0000E+00  0.0000E+00  0.0000E+00  0.0000E+00  0.0000E+00  0.0000E+00  0.0000E+00
    -34.659  0.0000E+00  0.0000E+00  0.0000E+00  0.0000E+00  0.0000E+00  0.0000E+00  0.0000E+00  0.0000E+00  0.0000E+00
    -34.372  0.0000E+00  0.0000E+00  0.0000E+00  0.0000E+00  0.0000E+00  0.0000E+00  0.0000E+00  0.0000E+00  0.0000E+00
    -34.084  0.0000E+00  0.0000E+00  0.0000E+00  0.0000E+00  0.0000E+00  0.0000E+00  0.0000E+00  0.0000E+00  0.0000E+00
    -33.796  0.0000E+00  0.0000E+00  0.0000E+00  0.0000E+00  0.0000E+00  0.0000E+00  0.0000E+00  0.0000E+00  0.0000E+00
    -33.508  0.0000E+00  0.0000E+00  0.0000E+00  0.0000E+00  0.0000E+00  0.0000E+00  0.0000E+00  0.0000E+00  0.0000E+00
    -33.221  0.0000E+00  0.0000E+00  0.0000E+00  0.0000E+00  0.0000E+00  0.0000E+00  0.0000E+00  0.0000E+00  0.0000E+00
    -32.933  0.0000E+00  0.0000E+00  0.0000E+00  0.0000E+00  0.0000E+00  0.0000E+00  0.0000E+00  0.0000E+00  0.0000E+00
    -32.645  0.0000E+00  0.0000E+00  0.0000E+00  0.0000E+00  0.0000E+00  0.0000E+00  0.0000E+00  0.0000E+00  0.0000E+00
    -32.358  0.0000E+00  0.0000E+00  0.0000E+00  0.0000E+00  0.0000E+00  0.0000E+00  0.0000E+00  0.0000E+00  0.0000E+00
    -32.070  0.0000E+00  0.0000E+00  0.0000E+00  0.0000E+00  0.0000E+00  0.0000E+00  0.0000E+00  0.0000E+00  0.0000E+00
    -31.782  0.0000E+00  0.0000E+00  0.0000E+00  0.0000E+00  0.0000E+00  0.0000E+00  0.0000E+00  0.0000E+00  0.0000E+00