       N       E                     dE             d eps       ncg     rms          rms(c)
DAV:   1     0.839313497728E+04    0.83931E+04   -0.65370E+05  6360   0.139E+03
DAV:   2     0.111799117197E+03   -0.82813E+04   -0.80842E+04  5424   0.464E+02
DAV:   3    -0.277628192696E+03   -0.38943E+03   -0.38172E+03  5560   0.121E+02
DAV:   4    -0.286015907532E+03   -0.83877E+01   -0.82876E+01  5456   0.174E+01
DAV:   5    -0.286312153325E+03   -0.29625E+00   -0.29611E+00  6056   0.320E+00    0.714E+01
DAV:   6    -0.268063816222E+03    0.18248E+02   -0.59277E+02  5480   0.774E+01    0.860E+01
DAV:   7    -0.241593753125E+03    0.26470E+02   -0.75801E+01  5672   0.342E+01    0.366E+01
DAV:   8    -0.241127683299E+03    0.46607E+00   -0.23672E+01  6150   0.310E+01    0.219E+01
DAV:   9    -0.254462701253E+03   -0.13335E+02   -0.56153E+01  5648   0.673E+01    0.402E+01
DAV:  10    -0.239168366132E+03    0.15294E+02   -0.29840E+01  5612   0.315E+01    0.141E+01
DAV:  11    -0.237591220289E+03    0.15771E+01   -0.43057E+00  5992   0.168E+01    0.511E+00
DAV:  12    -0.237768746426E+03   -0.17753E+00   -0.29183E+00  5520   0.540E+00    0.449E+00
DAV:  13    -0.237723910041E+03    0.44836E-01   -0.26625E-01  5584   0.257E+00    0.316E+00
DAV:  14    -0.237667810714E+03    0.56099E-01   -0.14517E-01  5608   0.178E+00    0.175E+00
DAV:  15    -0.237672451572E+03   -0.46409E-02   -0.75370E-02  5432   0.157E+00    0.137E+00
DAV:  16    -0.237663861619E+03    0.85900E-02   -0.12655E-02  5488   0.912E-01    0.954E-01
DAV:  17    -0.237656596613E+03    0.72650E-02   -0.29355E-03  7632   0.599E-01    0.605E-01
DAV:  18    -0.237655600691E+03    0.99592E-03   -0.45474E-03  6752   0.427E-01    0.272E-01
DAV:  19    -0.237656004570E+03   -0.40388E-03   -0.20711E-03  6256   0.356E-01    0.130E-01
DAV:  20    -0.237656471905E+03   -0.46733E-03   -0.12221E-03  5680   0.160E-01    0.844E-02
DAV:  21    -0.237656975377E+03   -0.50347E-03   -0.36361E-04  5208   0.852E-02    0.611E-02
DAV:  22    -0.237657652653E+03   -0.67728E-03   -0.76414E-05  4944   0.564E-02    0.418E-02
DAV:  23    -0.237658404545E+03   -0.75189E-03   -0.87234E-05  4656   0.481E-02    0.331E-02
DAV:  24    -0.237658971581E+03   -0.56704E-03   -0.39395E-05  3960   0.385E-02    0.232E-02
DAV:  25    -0.237659321646E+03   -0.35006E-03   -0.29355E-05  3744   0.264E-02    0.151E-02
DAV:  26    -0.237659695668E+03   -0.37402E-03   -0.35476E-05  3960   0.249E-02    0.155E-02
DAV:  27    -0.237659994716E+03   -0.29905E-03   -0.23937E-05  3376   0.222E-02    0.979E-03
DAV:  28    -0.237660101387E+03   -0.10667E-03   -0.11587E-05  3192   0.110E-02    0.857E-03
DAV:  29    -0.237660135387E+03   -0.34000E-04   -0.37670E-06  3160   0.753E-03    0.634E-03
DAV:  30    -0.237660183056E+03   -0.47669E-04   -0.22669E-06  3064   0.463E-03    0.490E-03
DAV:  31    -0.237660207103E+03   -0.24047E-04   -0.10589E-06  3008   0.386E-03    0.379E-03
DAV:  32    -0.237660221016E+03   -0.13913E-04   -0.45397E-07  2936   0.386E-03    0.237E-03
DAV:  33    -0.237660231488E+03   -0.10472E-04   -0.29324E-07  2944   0.220E-03    0.152E-03
DAV:  34    -0.237660241909E+03   -0.10421E-04   -0.23732E-07  2928   0.163E-03    0.173E-03
DAV:  35    -0.237660244073E+03   -0.21637E-05   -0.76820E-08  2992   0.112E-03
   1 F= -.26675197E+03 E0= -.26674916E+03  d E =-.266752E+03
