 vasp.6.5.1 10Mar25 (build Mar 31 2026 12:25:20) complex                         
 executed on              LinuxNV date 2026.04.01  13:37:43
 running    1 mpi-ranks, with    1 threads/rank, on    1 nodes
 distrk:  each k-point on    1 cores,    1 groups
 distr:  one band on NCORE=   1 cores,    1 groups
 Offloading initialized ...    1 GPUs detected


--------------------------------------------------------------------------------------------------------


 INCAR:
   SYSTEM = 50% Au CO adsorption
   ENCUT = 400
   EDIFF = 1E-5
   ISMEAR = 1
   SIGMA = 0.1
   LREAL = Auto
   PREC = Normal
   ALGO = Normal
   NSW = 100
   IBRION = 1
   EDIFFG = -0.04
   ISIF = 2
   IVDW = 12
   ISPIN = 1
   LORBIT = 11
   NCORE = 4
   LWAVE = .TRUE.
   LCHARG = .TRUE.

 POTCAR:    PAW_PBE Au 04Oct2007                  
 POTCAR:    PAW_PBE Cu_pv 06Sep2000               
 POTCAR:    PAW_PBE C 08Apr2002                   
 POTCAR:    PAW_PBE O 08Apr2002                   
 POTCAR:    PAW_PBE Au 04Oct2007                  
   SHA256 =  d0044ae04e2bdce24051b198fc5c053d722a5bc6fe3c3b100514a13fc5d2db88 Au/POTCAR             
   COPYR  = (c) Copyright 04Oct2007 Georg Kresse                                                    
   COPYR  = This file is part of the software VASP. Any use, copying, and all other rights are regul
   COPYR  = If you do not have a valid VASP license, you may not use, copy or distribute this file. 
   VRHFIN =Au: s1d10                                                                                
   LEXCH  = PE                                                                                      
   EATOM  =   926.0867 eV,   68.0654 Ry                                                             
                                                                                                    
   TITEL  = PAW_PBE Au 04Oct2007                                                                    
   LULTRA =        F    use ultrasoft PP ?                                                          
   IUNSCR =        1    unscreen: 0-lin 1-nonlin 2-no                                               
   RPACOR =    2.330    partial core radius                                                         
   POMASS =  196.966; ZVAL   =   11.000    mass and valenz                                          
   RCORE  =    2.500    outmost cutoff radius                                                       
   RWIGS  =    2.840; RWIGS  =    1.503    wigner-seitz radius (au A)                               
   ENMAX  =  229.943; ENMIN  =  172.457 eV                                                          
   ICORE  =        3    local potential                                                             
   LCOR   =        T    correct aug charges                                                         
   LPAW   =        T    paw PP                                                                      
   EAUG   =  356.670                                                                                
   DEXC   =    0.000                                                                                
   RMAX   =    2.562    core radius for proj-oper                                                   
   RAUG   =    1.300    factor for augmentation sphere                                              
   RDEP   =    2.598    radius for radial grids                                                     
   RDEPT  =    2.193    core radius for aug-charge                                                  
                                                                                                    
   Atomic configuration                                                                             
   16 entries                                                                                       
     n  l   j            E        occ.                                                              
     1  0  0.50    -80748.5001   2.0000                                                             
     2  0  0.50    -14244.7466   2.0000                                                             
     2  1  1.50    -12310.9591   6.0000                                                             
     3  0  0.50     -3362.1768   2.0000                                                             
     3  1  1.50     -2801.5463   6.0000                                                             
     3  2  2.50     -2203.8206  10.0000                                                             
     4  0  0.50      -729.8168   2.0000                                                             
     4  1  1.50      -546.0527   6.0000                                                             
     4  2  2.50      -325.7302  10.0000                                                             
     4  3  3.50       -81.1472  14.0000                                                             
     5  0  0.50      -108.3201   2.0000                                                             
     5  1  1.50       -59.7479   6.0000                                                             
     5  2  2.50        -6.8783  10.0000                                                             
     6  0  0.50        -5.7602   1.0000                                                             
     6  1  1.50        -6.8029   0.0000                                                             
     5  3  2.50        -1.3606   0.0000                                                             
   Description                                                                                      
     l       E           TYP  RCUT    TYP  RCUT                                                     
     2     -6.8782861     23  2.500                                                                 
     2     -8.2388687     23  2.500                                                                 
     0     -5.7601759     23  2.500                                                                 
     0     -0.8493231     23  2.500                                                                 
     1     -2.7211652     23  2.500                                                                 
     1     27.2116520     23  2.500                                                                 
     3     -1.3605826     23  2.500                                                                 
  local pseudopotential read in
  partial core-charges read in
  partial kinetic energy density read in
  atomic valenz-charges read in
  non local Contribution for L=            2  read in
    real space projection operators read in
  non local Contribution for L=            2  read in
    real space projection operators read in
  non local Contribution for L=            0  read in
    real space projection operators read in
  non local Contribution for L=            0  read in
    real space projection operators read in
  non local Contribution for L=            1  read in
    real space projection operators read in
  non local Contribution for L=            1  read in
    real space projection operators read in
    PAW grid and wavefunctions read in
 
   number of l-projection  operators is LMAX  =            6
   number of lm-projection operators is LMMAX =           18
 
 POTCAR:    PAW_PBE Cu_pv 06Sep2000               
   SHA256 =  cb7b504e2ea725fe1f25c85a9ac77d4012ce94cd394135b722c4e25ec297f1cb Cu_pv/POTCAR          
   COPYR  = (c) Copyright 06Sep2000 Georg Kresse                                                    
   COPYR  = This file is part of the software VASP. Any use, copying, and all other rights are regul
   COPYR  = If you do not have a valid VASP license, you may not use, copy or distribute this file. 
   VRHFIN =Cu: d10 p1                                                                               
   LEXCH  = PE                                                                                      
   EATOM  =  4120.1201 eV,  302.8203 Ry                                                             
                                                                                                    
   TITEL  = PAW_PBE Cu_pv 06Sep2000                                                                 
   LULTRA =        F    use ultrasoft PP ?                                                          
   IUNSCR =        1    unscreen: 0-lin 1-nonlin 2-no                                               
   RPACOR =    1.500    partial core radius                                                         
   POMASS =   63.546; ZVAL   =   17.000    mass and valenz                                          
   RCORE  =    2.000    outmost cutoff radius                                                       
   RWIGS  =    2.000; RWIGS  =    1.058    wigner-seitz radius (au A)                               
   ENMAX  =  368.648; ENMIN  =  276.486 eV                                                          
   RCLOC  =    1.304    cutoff for local pot                                                        
   LCOR   =        T    correct aug charges                                                         
   LPAW   =        T    paw PP                                                                      
   EAUG   =  758.233                                                                                
   DEXC   =    0.000                                                                                
   RMAX   =    2.046    core radius for proj-oper                                                   
   RAUG   =    1.300    factor for augmentation sphere                                              
   RDEP   =    2.025    radius for radial grids                                                     
   RDEPT  =    1.558    core radius for aug-charge                                                  
                                                                                                    
   Atomic configuration                                                                             
    8 entries                                                                                       
     n  l   j            E        occ.                                                              
     1  0  0.50     -8850.2467   2.0000                                                             
     2  0  0.50     -1062.3498   2.0000                                                             
     2  1  1.50      -916.8226   6.0000                                                             
     3  0  0.50      -114.6929   2.0000                                                             
     3  1  1.50       -72.1325   6.0000                                                             
     3  2  2.50        -5.0394  10.0000                                                             
     4  0  0.50        -4.6097   1.0000                                                             
     4  3  2.50        -1.3606   0.0000                                                             
   Description                                                                                      
     l       E           TYP  RCUT    TYP  RCUT                                                     
     1    -72.1324777     23  1.700                                                                 
     1     -1.3605826     23  1.700                                                                 
     2     -5.0393776     23  2.000                                                                 
     2     -6.3999602     23  2.000                                                                 
     0     -4.6097062     23  1.800                                                                 
     0     14.1620818     23  1.800                                                                 
  local pseudopotential read in
  partial core-charges read in
  partial kinetic energy density read in
  atomic valenz-charges read in
  non local Contribution for L=            1  read in
    real space projection operators read in
  non local Contribution for L=            1  read in
    real space projection operators read in
  non local Contribution for L=            2  read in
    real space projection operators read in
  non local Contribution for L=            2  read in
    real space projection operators read in
  non local Contribution for L=            0  read in
    real space projection operators read in
  non local Contribution for L=            0  read in
    real space projection operators read in
    PAW grid and wavefunctions read in
 
   number of l-projection  operators is LMAX  =            6
   number of lm-projection operators is LMMAX =           18
 
 POTCAR:    PAW_PBE C 08Apr2002                   
   SHA256 =  253f7b50bb8d59471dbedb8285d89021f4a42ed1a2c5d38a03a736e69125dd95 C/POTCAR              
   COPYR  = (c) Copyright 08Apr2002 Georg Kresse                                                    
   COPYR  = This file is part of the software VASP. Any use, copying, and all other rights are regul
   COPYR  = If you do not have a valid VASP license, you may not use, copy or distribute this file. 
   VRHFIN =C: s2p2                                                                                  
   LEXCH  = PE                                                                                      
   EATOM  =   147.1560 eV,   10.8157 Ry                                                             
                                                                                                    
   TITEL  = PAW_PBE C 08Apr2002                                                                     
   LULTRA =        F    use ultrasoft PP ?                                                          
   IUNSCR =        1    unscreen: 0-lin 1-nonlin 2-no                                               
   RPACOR =    1.200    partial core radius                                                         
   POMASS =   12.011; ZVAL   =    4.000    mass and valenz                                          
   RCORE  =    1.500    outmost cutoff radius                                                       
   RWIGS  =    1.630; RWIGS  =    0.863    wigner-seitz radius (au A)                               
   ENMAX  =  400.000; ENMIN  =  300.000 eV                                                          
   ICORE  =        2    local potential                                                             
   LCOR   =        T    correct aug charges                                                         
   LPAW   =        T    paw PP                                                                      
   EAUG   =  644.873                                                                                
   DEXC   =    0.000                                                                                
   RMAX   =    1.529    core radius for proj-oper                                                   
   RAUG   =    1.300    factor for augmentation sphere                                              
   RDEP   =    1.501    radius for radial grids                                                     
   RDEPT  =    1.300    core radius for aug-charge                                                  
                                                                                                    
   Atomic configuration                                                                             
    4 entries                                                                                       
     n  l   j            E        occ.                                                              
     1  0  0.50      -273.3789   2.0000                                                             
     2  0  0.50       -13.7508   2.0000                                                             
     2  1  0.50        -5.2854   2.0000                                                             
     3  2  1.50        -5.4423   0.0000                                                             
   Description                                                                                      
     l       E           TYP  RCUT    TYP  RCUT                                                     
     0    -13.7508458     23  1.200                                                                 
     0     -8.2022199     23  1.200                                                                 
     1     -5.2854383     23  1.500                                                                 
     1     34.0145650     23  1.500                                                                 
     2     -5.4423304      7  1.500                                                                 
  local pseudopotential read in
  partial core-charges read in
  partial kinetic energy density read in
  atomic valenz-charges read in
  non local Contribution for L=            0  read in
    real space projection operators read in
  non local Contribution for L=            0  read in
    real space projection operators read in
  non local Contribution for L=            1  read in
    real space projection operators read in
  non local Contribution for L=            1  read in
    real space projection operators read in
    PAW grid and wavefunctions read in
 
   number of l-projection  operators is LMAX  =            4
   number of lm-projection operators is LMMAX =            8
 
 POTCAR:    PAW_PBE O 08Apr2002                   
   SHA256 =  818f92134a0a090dccd8ba1447fa70422a3b330e708bb4f08108d8ae51209ddf O/POTCAR              
   COPYR  = (c) Copyright 08Apr2002 Georg Kresse                                                    
   COPYR  = This file is part of the software VASP. Any use, copying, and all other rights are regul
   COPYR  = If you do not have a valid VASP license, you may not use, copy or distribute this file. 
   VRHFIN =O: s2p4                                                                                  
   LEXCH  = PE                                                                                      
   EATOM  =   432.3788 eV,   31.7789 Ry                                                             
                                                                                                    
   TITEL  = PAW_PBE O 08Apr2002                                                                     
   LULTRA =        F    use ultrasoft PP ?                                                          
   IUNSCR =        1    unscreen: 0-lin 1-nonlin 2-no                                               
   RPACOR =    1.200    partial core radius                                                         
   POMASS =   16.000; ZVAL   =    6.000    mass and valenz                                          
   RCORE  =    1.520    outmost cutoff radius                                                       
   RWIGS  =    1.550; RWIGS  =    0.820    wigner-seitz radius (au A)                               
   ENMAX  =  400.000; ENMIN  =  300.000 eV                                                          
   ICORE  =        2    local potential                                                             
   LCOR   =        T    correct aug charges                                                         
   LPAW   =        T    paw PP                                                                      
   EAUG   =  605.392                                                                                
   DEXC   =    0.000                                                                                
   RMAX   =    1.553    core radius for proj-oper                                                   
   RAUG   =    1.300    factor for augmentation sphere                                              
   RDEP   =    1.550    radius for radial grids                                                     
   RDEPT  =    1.329    core radius for aug-charge                                                  
                                                                                                    
   Atomic configuration                                                                             
    4 entries                                                                                       
     n  l   j            E        occ.                                                              
     1  0  0.50      -514.6923   2.0000                                                             
     2  0  0.50       -23.9615   2.0000                                                             
     2  1  0.50        -9.0305   4.0000                                                             
     3  2  1.50        -9.5241   0.0000                                                             
   Description                                                                                      
     l       E           TYP  RCUT    TYP  RCUT                                                     
     0    -23.9615318     23  1.200                                                                 
     0     -9.5240782     23  1.200                                                                 
     1     -9.0304911     23  1.520                                                                 
     1      8.1634956     23  1.520                                                                 
     2     -9.5240782      7  1.500                                                                 
  local pseudopotential read in
  partial core-charges read in
  partial kinetic energy density read in
  kinetic energy density of atom read in
  atomic valenz-charges read in
  non local Contribution for L=            0  read in
    real space projection operators read in
  non local Contribution for L=            0  read in
    real space projection operators read in
  non local Contribution for L=            1  read in
    real space projection operators read in
  non local Contribution for L=            1  read in
    real space projection operators read in
    PAW grid and wavefunctions read in
 
   number of l-projection  operators is LMAX  =            4
   number of lm-projection operators is LMMAX =            8
 
 Optimization of the real space projectors (new method)

 maximal supplied QI-value         = 15.12
 optimisation between [QCUT,QGAM] = [ 10.13, 20.41] = [ 28.73,116.64] Ry 
 Optimized for a Real-space Cutoff    1.51 Angstroem

   l    n(q)    QCUT    max X(q) W(low)/X(q) W(high)/X(q)  e(spline) 
   2      8    10.129    60.898    0.46E-03    0.46E-03    0.14E-06
   2      8    10.129    58.894    0.47E-03    0.47E-03    0.14E-06
   0      9    10.129   109.617    0.16E-03    0.11E-03    0.54E-07
   0      9    10.129    75.026    0.15E-03    0.11E-03    0.52E-07
   1      9    10.129    16.344    0.96E-04    0.15E-03    0.14E-06
   1      9    10.129    10.160    0.81E-04    0.12E-03    0.11E-06
 Optimization of the real space projectors (new method)

 maximal supplied QI-value         = 18.90
 optimisation between [QCUT,QGAM] = [ 10.20, 20.41] = [ 29.16,116.64] Ry 
 Optimized for a Real-space Cutoff    1.26 Angstroem

   l    n(q)    QCUT    max X(q) W(low)/X(q) W(high)/X(q)  e(spline) 
   1      7    10.205     3.172    0.20E-03    0.15E-04    0.13E-06
   1      7    10.205     4.083    0.34E-03    0.11E-03    0.24E-06
   2      7    10.205    65.342    0.26E-03    0.63E-03    0.23E-06
   2      7    10.205    61.381    0.27E-03    0.64E-03    0.23E-06
   0      8    10.205    65.742    0.10E-03    0.19E-03    0.36E-07
   0      8    10.205    30.431    0.85E-04    0.16E-03    0.33E-07
 Optimization of the real space projectors (new method)

 maximal supplied QI-value         = 25.13
 optimisation between [QCUT,QGAM] = [ 10.05, 20.36] = [ 28.30,116.06] Ry 
 Optimized for a Real-space Cutoff    1.30 Angstroem

   l    n(q)    QCUT    max X(q) W(low)/X(q) W(high)/X(q)  e(spline) 
   0      8    10.053   115.676    0.49E-03    0.72E-03    0.18E-06
   0      8    10.053    87.132    0.49E-03    0.71E-03    0.18E-06
   1      7    10.053     4.429    0.32E-03    0.31E-03    0.18E-06
   1      7    10.053     2.733    0.23E-03    0.19E-03    0.20E-06
 Optimization of the real space projectors (new method)

 maximal supplied QI-value         = 24.76
 optimisation between [QCUT,QGAM] = [ 10.15, 20.30] = [ 28.85,115.39] Ry 
 Optimized for a Real-space Cutoff    1.38 Angstroem

   l    n(q)    QCUT    max X(q) W(low)/X(q) W(high)/X(q)  e(spline) 
   0      8    10.150    20.381    0.22E-03    0.32E-03    0.29E-06
   0      8    10.150    15.268    0.23E-03    0.35E-03    0.30E-06
   1      8    10.150     5.964    0.46E-03    0.53E-03    0.21E-06
   1      8    10.150     5.382    0.38E-03    0.45E-03    0.19E-06
  PAW_PBE Au 04Oct2007                  :
 energy of atom  1       EATOM= -926.0867
 kinetic energy error for atom=    0.0062 (will be added to EATOM!!)
  PAW_PBE Cu_pv 06Sep2000               :
 energy of atom  2       EATOM=-4120.1201
 kinetic energy error for atom=    0.0996 (will be added to EATOM!!)
  PAW_PBE C 08Apr2002                   :
 energy of atom  3       EATOM= -147.1560
 kinetic energy error for atom=    0.0288 (will be added to EATOM!!)
  PAW_PBE O 08Apr2002                   :
 energy of atom  4       EATOM= -432.3788
 kinetic energy error for atom=    0.1156 (will be added to EATOM!!)
 
 
 POSCAR: 50% Au + CO
  positions in direct lattice
  velocities in cartesian coordinates
 IVDW         = 12
 VDW_S6       =    1.0000
 VDW_S8       =    0.7875
 VDW_A1       =    0.4289
 VDW_A2       =    4.4407
 VDW_RADIUS   =   50.2022 A
 VDW_CNRADIUS =   21.1671 A


 exchange-correlation table for PE
   RHO(1)=    0.500       N(1)  =     2000
   RHO(2)=  100.500       N(2)  =     4000
 


--------------------------------------------------------------------------------------------------------


 ion  position               nearest neighbor table
   1  0.494  0.261  0.590-  25 2.55  26 2.56   4 2.57   3 2.57  15 2.70  19 2.76  18 2.77   8 2.77
                             7 2.78
   2  0.994  0.261  0.590-   4 2.57  24 2.57   3 2.58  27 2.59  17 2.67  31 2.75  23 2.76   5 2.77
                             6 2.77
   3  0.245  0.261  0.590-   1 2.57  24 2.57   2 2.58  25 2.59  16 2.67  19 2.75  23 2.76   7 2.77
                             6 2.77
   4  0.744  0.261  0.590-  27 2.55  26 2.56   1 2.57   2 2.57  14 2.70  31 2.76  18 2.77   8 2.77
                             5 2.78
   5  0.008  0.985  0.590-  28 2.55  29 2.57   6 2.57   8 2.57  21 2.74  20 2.75   2 2.77   4 2.78
                            31 2.82
   6  0.257  0.985  0.590-  63 2.55  29 2.55   5 2.57   7 2.57  30 2.72  21 2.72   3 2.77   2 2.77
                            23 2.81
   7  0.507  0.985  0.590-  64 2.55  63 2.57   6 2.57   8 2.57  30 2.74  22 2.75   3 2.77   1 2.78
                            19 2.82
   8  0.757  0.985  0.589-  28 2.57  64 2.57   5 2.57   7 2.57  20 2.70  22 2.70   4 2.77   1 2.77
                            18 2.78
   9  0.667  0.666  0.525-  59 2.46  27 2.47  60 2.47  33 2.47  64 2.48  63 2.53
  10  0.417  0.666  0.526-  58 2.47  59 2.47  62 2.48  26 2.49  29 2.51  63 2.51
  11  0.168  0.666  0.525-  58 2.46  25 2.47  57 2.47  61 2.47  28 2.48  29 2.53
  12  0.918  0.665  0.525-  60 2.46  57 2.46  32 2.48  64 2.51  28 2.51  17 2.53  16 2.53
  13  0.000  0.000  0.413-
  14  0.667  0.416  0.526-  56 2.47  55 2.47  59 2.48  27 2.52   4 2.70
  15  0.417  0.416  0.526-  54 2.47  55 2.47  58 2.48  25 2.52   1 2.70
  16  0.163  0.419  0.527-  57 2.50  53 2.51  25 2.52  12 2.53  17 2.53  54 2.53   3 2.67
  17  0.918  0.419  0.527-  60 2.50  53 2.51  27 2.52  12 2.53  16 2.53  56 2.53   2 2.67
  18  0.667  0.166  0.526-  51 2.49  52 2.49  55 2.49   1 2.77   4 2.77   8 2.78
  19  0.417  0.165  0.527-  50 2.50  51 2.50  54 2.51   3 2.75   1 2.76   7 2.82
  20  0.918  0.914  0.526-  61 2.47  32 2.47  52 2.49   8 2.70   5 2.75
  21  0.168  0.915  0.526-  62 2.49  61 2.49  49 2.50   6 2.72   5 2.74
  22  0.668  0.914  0.526-  33 2.47  32 2.47  51 2.49   8 2.70   7 2.75
  23  0.167  0.166  0.527-  49 2.50  50 2.50  53 2.51   2 2.76   3 2.76   6 2.81
  24  0.995  0.511  0.585-  65 1.87  64 2.43  28 2.43   2 2.57   3 2.57
  25  0.249  0.509  0.581-  29 2.40  28 2.42  11 2.47  15 2.52  16 2.52  26 2.53   1 2.55   3 2.59

  26  0.496  0.509  0.582-  29 2.41  63 2.41  10 2.49  27 2.53  25 2.53   1 2.56   4 2.56
  27  0.742  0.509  0.581-  63 2.40  64 2.42   9 2.47  14 2.52  17 2.52  26 2.53   4 2.55   2 2.59

  28  0.009  0.739  0.581-  25 2.42  24 2.43  11 2.48  12 2.51   5 2.55   8 2.57
  29  0.257  0.739  0.583-  25 2.40  26 2.41  10 2.51  11 2.53   6 2.55   5 2.57
  30  0.417  0.915  0.526-  62 2.49  33 2.49  50 2.50   6 2.72   7 2.74
  31  0.918  0.165  0.527-  49 2.50  52 2.50  56 2.51   2 2.75   4 2.76   5 2.82
  32  0.833  0.833  0.471-  20 2.47  22 2.47  12 2.48
  33  0.583  0.833  0.471-  22 2.47   9 2.47  30 2.49
  34  0.250  0.000  0.413-
  35  0.500  0.000  0.413-
  36  0.750  0.000  0.413-
  37  0.000  0.250  0.413-
  38  0.250  0.250  0.413-
  39  0.500  0.250  0.413-
  40  0.750  0.250  0.413-
  41  0.000  0.500  0.413-
  42  0.250  0.500  0.413-
  43  0.500  0.500  0.413-
  44  0.750  0.500  0.413-
  45  0.000  0.750  0.413-
  46  0.250  0.750  0.413-
  47  0.500  0.750  0.413-
  48  0.750  0.750  0.413-
  49  0.083  0.083  0.471-  31 2.50  21 2.50  23 2.50
  50  0.333  0.083  0.471-  19 2.50  30 2.50  23 2.50
  51  0.583  0.083  0.471-  18 2.49  22 2.49  19 2.50
  52  0.833  0.083  0.471-  18 2.49  20 2.49  31 2.50
  53  0.083  0.333  0.471-  16 2.51  17 2.51  23 2.51
  54  0.333  0.333  0.471-  15 2.47  19 2.51  16 2.53
  55  0.583  0.333  0.471-  14 2.47  15 2.47  18 2.49
  56  0.833  0.333  0.471-  14 2.47  31 2.51  17 2.53
  57  0.083  0.583  0.471-  12 2.46  11 2.47  16 2.50
  58  0.333  0.583  0.471-  11 2.46  10 2.47  15 2.48
  59  0.583  0.583  0.471-   9 2.46  10 2.47  14 2.48
  60  0.833  0.583  0.471-  12 2.46   9 2.47  17 2.50
  61  0.083  0.833  0.471-  20 2.47  11 2.47  21 2.49
  62  0.333  0.833  0.471-  10 2.48  21 2.49  30 2.49
  63  0.504  0.739  0.583-  27 2.40  26 2.41  10 2.51   9 2.53   6 2.55   7 2.57
  64  0.752  0.739  0.581-  27 2.42  24 2.43   9 2.48  12 2.51   7 2.55   8 2.57
  65  0.944  0.612  0.630-  66 1.16  24 1.87
  66  0.926  0.648  0.661-  65 1.16
 
  LATTYP: Found a hexagonal cell.
 ALAT       =    10.2813325985
 C/A-ratio  =     3.5302821242
  
  Lattice vectors:
  
 A1 = (  -5.1406662992,  -8.9038952150,   0.0000000000)
 A2 = (  10.2813325985,   0.0000000000,   0.0000000000)
 A3 = (   0.0000000000,   0.0000000000,  36.2960046855)


Analysis of symmetry for initial positions (statically):
=====================================================================
 Subroutine PRICEL returns:
 Original cell was already a primitive cell.
 

 Routine SETGRP: Setting up the symmetry group for a 
 hexagonal supercell.


 Subroutine GETGRP returns: Found  2 space group operations
 (whereof  1 operations were pure point group operations)
 out of a pool of 24 trial point group operations.


The static configuration has the point symmetry C_1 .
 The point group associated with its full space group is C_1h.


Analysis of symmetry for dynamics (positions and initial velocities):
=====================================================================
 Subroutine PRICEL returns:
 Original cell was already a primitive cell.
 

 Routine SETGRP: Setting up the symmetry group for a 
 hexagonal supercell.


 Subroutine GETGRP returns: Found  2 space group operations
 (whereof  1 operations were pure point group operations)
 out of a pool of 24 trial point group operations.


The dynamic configuration has the point symmetry C_1 .
 The point group associated with its full space group is C_1h.


Analysis of constrained symmetry for selective dynamics:
=====================================================================
 Subroutine PRICEL returns:
 Original cell was already a primitive cell.
 

 Routine SETGRP: Setting up the symmetry group for a 
 hexagonal supercell.


 Subroutine GETGRP returns: Found  2 space group operations
 (whereof  1 operations were pure point group operations)
 out of a pool of 24 trial point group operations.


The constrained configuration has the point symmetry C_1 .
 The point group associated with its full space group is C_1h.


 Subroutine INISYM returns: Found  2 space group operations
 (whereof  1 operations are pure point group operations),
 and found     1 'primitive' translations


----------------------------------------------------------------------------------------

                                     Primitive cell                                     

  volume of cell :    3322.6781

  direct lattice vectors                    reciprocal lattice vectors
    10.281332598  0.000000000  0.000000000     0.097263656 -0.056155198  0.000000000
     5.140666299  8.903895215  0.000000000     0.000000000  0.112310396  0.000000000
     0.000000000  0.000000000 36.296004686     0.000000000  0.000000000  0.027551242

  length of vectors
    10.281332598 10.281332598 36.296004686     0.112310396  0.112310396  0.027551242

  position of ions in fractional coordinates (direct lattice)
     0.494498462  0.261430069  0.589637020
     0.994094908  0.261242467  0.589539351
     0.244662624  0.261242467  0.589539351
     0.744071469  0.261430069  0.589637020
     0.007567176  0.985253548  0.590495532
     0.257369963  0.985260075  0.590100502
     0.507179276  0.985253548  0.590495532
     0.757392929  0.985214141  0.588701863
     0.666597825  0.665693112  0.525403802
     0.417246870  0.665506260  0.525645305
     0.167709064  0.665693112  0.525403802
     0.917683320  0.664633360  0.525438408
     0.000000000  0.000000000  0.413268626
     0.666955410  0.416232241  0.525625485
     0.416812349  0.416232241  0.525625485
     0.163315130  0.419139615  0.526848130
     0.917545255  0.419139615  0.526848130
     0.667087175  0.165825650  0.526150836
     0.417001363  0.165388659  0.526673537
     0.918009776  0.914212834  0.525777869
     0.167658128  0.914862212  0.526195214
     0.667777390  0.914212834  0.525777869
     0.167236461  0.165527079  0.526629937
     0.994520592  0.510958816  0.585261994
     0.249032873  0.508917723  0.581419168
     0.495542591  0.508914817  0.582404942
     0.742049404  0.508917723  0.581419168
     0.008780961  0.739152874  0.581446552
     0.257183495  0.738543749  0.582659506
     0.417479660  0.914862212  0.526195214
     0.917609978  0.165388659  0.526673537
     0.833333333  0.833333333  0.471089542
     0.583333333  0.833333333  0.471089542
     0.250000000  0.000000000  0.413268626
     0.500000000  0.000000000  0.413268626
     0.750000000  0.000000000  0.413268626
     1.000000000  0.250000000  0.413268626
     0.250000000  0.250000000  0.413268626
     0.500000000  0.250000000  0.413268626
     0.750000000  0.250000000  0.413268626
     1.000000000  0.500000000  0.413268626
     0.250000000  0.500000000  0.413268626
     0.500000000  0.500000000  0.413268626
     0.750000000  0.500000000  0.413268626
     1.000000000  0.750000000  0.413268626
     0.250000000  0.750000000  0.413268626
     0.500000000  0.750000000  0.413268626
     0.750000000  0.750000000  0.413268626
     0.083333333  0.083333333  0.471089542
     0.333333333  0.083333333  0.471089542
     0.583333333  0.083333333  0.471089542
     0.833333333  0.083333333  0.471089542
     0.083333333  0.333333333  0.471089542
     0.333333333  0.333333333  0.471089542
     0.583333333  0.333333333  0.471089542
     0.833333333  0.333333333  0.471089542
     0.083333333  0.583333333  0.471089542
     0.333333333  0.583333333  0.471089542
     0.583333333  0.583333333  0.471089542
     0.833333333  0.583333333  0.471089542
     0.083333333  0.833333333  0.471089542
     0.333333333  0.833333333  0.471089542
     0.504272756  0.738543749  0.582659506
     0.752066165  0.739152874  0.581446552
     0.944106210  0.611787579  0.630479956
     0.926238262  0.647523476  0.661272991

  ion indices of the primitive-cell ions
   primitive index   ion index
                 1           1
                 2           2
                 3           3
                 4           4
                 5           5
                 6           6
                 7           7
                 8           8
                 9           9
                10          10
                11          11
                12          12
                13          13
                14          14
                15          15
                16          16
                17          17
                18          18
                19          19
                20          20
                21          21
                22          22
                23          23
                24          24
                25          25
                26          26
                27          27
                28          28
                29          29
                30          30
                31          31
                32          32
                33          33
                34          34
                35          35
                36          36
                37          37
                38          38
                39          39
                40          40
                41          41
                42          42
                43          43
                44          44
                45          45
                46          46
                47          47
                48          48
                49          49
                50          50
                51          51
                52          52
                53          53
                54          54
                55          55
                56          56
                57          57
                58          58
                59          59
                60          60
                61          61
                62          62
                63          63
                64          64
                65          65
                66          66

----------------------------------------------------------------------------------------

 
 
 KPOINTS: Gamma-centered 3x3x1                    

Automatic generation of k-mesh.
 Grid dimensions read from file:
 generate k-points for:    3    3    1

 Generating k-lattice:

  Cartesian coordinates                     Fractional coordinates (reciprocal lattice)
     0.032421219 -0.018718399  0.000000000     0.333333333 -0.000000000  0.000000000
     0.000000000  0.037436799  0.000000000     0.000000000  0.333333333  0.000000000
     0.000000000  0.000000000  0.027551242     0.000000000  0.000000000  1.000000000

  Length of vectors
     0.037436799  0.037436799  0.027551242

  Shift w.r.t. Gamma in fractional coordinates (k-lattice)
     0.000000000  0.000000000  0.000000000

 
 Subroutine IBZKPT returns following result:
 ===========================================
 
 Found      4 irreducible k-points:
 
 Following reciprocal coordinates:
            Coordinates               Weight
  0.000000  0.000000  0.000000      1.000000
  0.333333  0.000000  0.000000      4.000000
  0.000000  0.333333  0.000000      2.000000
 -0.333333  0.333333  0.000000      2.000000
 
 Following cartesian coordinates:
            Coordinates               Weight
  0.000000  0.000000  0.000000      1.000000
  0.032421 -0.018718  0.000000      4.000000
  0.000000  0.037437  0.000000      2.000000
 -0.032421  0.056155  0.000000      2.000000
 


--------------------------------------------------------------------------------------------------------




 Dimension of arrays:
   k-points           NKPTS =      4   k-points in BZ     NKDIM =      4   number of bands    NBANDS=    630
   number of dos      NEDOS =    301   number of ions     NIONS =     66
   non local maximal  LDIM  =      6   non local SUM 2l+1 LMDIM =     18
   total plane-waves  NPLWV = 450000
   max r-space proj   IRMAX =   1997   max aug-charges    IRDMAX=   8481
   dimension x,y,z NGX =    50 NGY =   50 NGZ =  180
   dimension x,y,z NGXF=   100 NGYF=  100 NGZF=  360
   support grid    NGXF=   100 NGYF=  100 NGZF=  360
   ions per type =               8  56   1   1
   NGX,Y,Z   is equivalent  to a cutoff of   8.08,  8.08,  8.24 a.u.
   NGXF,Y,Z  is equivalent  to a cutoff of  16.17, 16.17, 16.49 a.u.

 SYSTEM =  50% Au CO adsorption                    
 POSCAR =  50% Au + CO                             

 Startparameter for this run:
   NWRITE =      2    write-flag & timer
   PREC   = normal    normal or accurate (medium, high low for compatibility)
   ISTART =      0    job   : 0-new  1-cont  2-samecut
   ICHARG =      2    charge: 1-file 2-atom 10-const
   ISPIN  =      1    spin polarized calculation?
   LNONCOLLINEAR =      F non collinear calculations
   LSORBIT =      F    spin-orbit coupling
   INIWAV =      1    electr: 0-lowe 1-rand  2-diag
   LASPH  =      F    aspherical Exc in radial PAW
 Electronic Relaxation 1
   ENCUT  =  400.0 eV  29.40 Ry    5.42 a.u.  16.77 16.77 59.19*2*pi/ulx,y,z
   ENINI  =  400.0     initial cutoff
   ENAUG  =  758.2 eV  augmentation charge cutoff
   NELM   =     60;   NELMIN=  2; NELMDL= -5     # of ELM steps 
   EDIFF  = 0.1E-04   stopping-criterion for ELM
   LREAL  =      T    real-space projection
   NLSPLINE    = F    spline interpolate recip. space projectors
   LCOMPAT=      F    compatible to vasp.4.4
   GGA_COMPAT  = T    GGA compatible to vasp.4.4-vasp.4.6
   LMAXPAW     = -100 max onsite density
   LMAXMIX     =    2 max onsite mixed and CHGCAR
   VOSKOWN=      0    Vosko Wilk Nusair interpolation
   ROPT   =   -0.00050  -0.00050  -0.00050  -0.00050
 Ionic relaxation
   EDIFFG = -.4E-01   stopping-criterion for IOM
   NSW    =    100    number of steps for IOM
   NBLOCK =      1;   KBLOCK =    100    inner block; outer block 
   IBRION =      1    ionic relax: 0-MD 1-quasi-New 2-CG
   NFREE  =      0    steps in history (QN), initial steepest desc. (CG)
   ISIF   =      2    stress and relaxation
   IWAVPR =     11    prediction:  0-non 1-charg 2-wave 3-comb
   ISYM   =      2    0-nonsym 1-usesym 2-fastsym
   LCORR  =      T    Harris-Foulkes like correction to forces

   POTIM  = 0.5000    time-step for ionic-motion
   TEIN   =    0.0    initial temperature
   TEBEG  =    0.0;   TEEND  =   0.0 temperature during run
   SMASS  =  -3.00    Nose mass-parameter (am)
   estimated Nose-frequenzy (Omega)   =  0.10E-29 period in steps = 0.13E+47 mass=  -0.242E-26a.u.
   SCALEE = 1.0000    scale energy and forces
   NPACO  =    256;   APACO  = 10.0  distance and # of slots for P.C.
   PSTRESS=    0.0 pullay stress

  Mass of Ions in am
   POMASS = 196.97 63.55 12.01 16.00
  Ionic Valenz
   ZVAL   =  11.00 17.00  4.00  6.00
  Atomic Wigner-Seitz radii
   RWIGS  =  -1.00 -1.00 -1.00 -1.00
  virtual crystal weights 
   VCA    =   1.00  1.00  1.00  1.00
   NELECT =    1050.0000    total number of electrons
   NUPDOWN=      -1.0000    fix difference up-down

 DOS related values:
   EMIN   =  10.00;   EMAX   =-10.00  energy-range for DOS
   EFERMI =   0.00;   METHOD = LEGACY      
   ISMEAR =     1;   SIGMA  =   0.10  broadening in eV -4-tet -1-fermi 0-gaus
   EFERMI_NEDOS =   21; number of points for ismear=-14 and -15

 Electronic relaxation 2 (details)
   IALGO  =     38    algorithm
   LDIAG  =      T    sub-space diagonalisation (order eigenvalues)
   LSUBROT=      F    optimize rotation matrix (better conditioning)
   LROBUST=      F    robust break criterion during scf (extrapolated energy error)
   ISEARCH=      0    line search for conjugate gradient (0, 1=use gradient)
   TURBO    =      0    0=normal 1=particle mesh
   IRESTART =      0    0=no restart 2=restart with 2 vectors
   NREBOOT  =      0    no. of reboots
   NMIN     =      0    reboot dimension
   EREF     =   0.00    reference energy to select bands
   IMIX   =      4    mixing-type and parameters
     AMIX     =   0.40;   BMIX     =  1.00
     AMIX_MAG =   1.60;   BMIX_MAG =  1.00
     AMIN     =   0.10
     WC   =   100.;   INIMIX=   1;  MIXPRE=   1;  MAXMIX= -45

 Intra band minimization:
   WEIMIN = 0.0010     energy-eigenvalue tresh-hold
   EBREAK =  0.40E-08  absolut break condition
   DEPER  =   0.30     relativ break condition  

   TIME   =   0.40     timestep for ELM

  volume/ion in A,a.u.               =      50.34       339.74
  Fermi-wavevector in a.u.,A,eV,Ry     =   1.115086  2.107208 16.917724  1.243418
  Thomas-Fermi vector in A             =   2.251688
 
 Write flags
   LWAVE        =      T    write WAVECAR
   LDOWNSAMPLE  =      F    k-point downsampling of WAVECAR
   LCHARG       =      T    write CHGCAR
   LVTOT        =      F    write LOCPOT, total local potential
   LVHAR        =      F    write LOCPOT, Hartree potential only
   WRT_POTENTIAL= false  ! write potential to hdf5 file
   LELF         =      F    write electronic localiz. function (ELF)
   LORBIT       =     11    0 simple, 1 ext, 2 COOP (PROOUT), +10 PAW based schemes


 Python interface
   PLUGINS active      =      F    recompile with -DPLUGINS to activate
 
 Dipole corrections
   LMONO      =      F    monopole corrections only (constant potential shift)
   LDIPOL     =      F    correct potential (dipole corrections)
   IDIPOL     =      0    1-x, 2-y, 3-z, 4-all directions 
   EPSILON    =  1.0000000 bulk dielectric constant
   LVACPOTAV  =      F  vacuum potentials using an averaging scheme for the charge density
   VACPOTFLAT =  0.1000000 required flatness to determine vacuum potential
 
Coulomb truncation method
  LTRUNCATE          =      F  Coulomb kernel truncation to be used

 
 Exchange correlation treatment:
   GGA     = PE    functional components
   XC_C    = 1    coefficients multiplying the functional components
   LIBXC   =     F    Libxc                    
   VOSKOWN =     0    Vosko Wilk Nusair interpolation
   LHFCALC =     F    Hartree Fock is set to
   LHFONE  =     F    Hartree Fock one center treatment
   AEXX    =    0.0000 exact exchange contribution

 Parameters of functionals:
   PE:
     No parameter
 
 Van der Waals corrections
   IVDW    =    12    specifies the selected vdW correction

 Linear response parameters
   LEPSILON=     F    determine dielectric tensor
   LRPA    =     F    only Hartree local field effects (RPA)
   LNABLA  =     F    use nabla operator in PAW spheres
   LVEL    =     F    velocity operator in full k-point grid
   CSHIFT  =0.1000    complex shift for real part using Kramers Kronig
   OMEGAMAX=  -1.0    maximum frequency
   DEG_THRESHOLD= 0.2000000E-02 threshold for treating states as degnerate
   RTIME   =   -0.100 relaxation time in fs
  (WPLASMAI=    0.000 imaginary part of plasma frequency in eV, 0.658/RTIME)
   DFIELD  = 0.0000000 0.0000000 0.0000000 field for delta impulse in time
 
  Optional k-point grid parameters
   LKPOINTS_OPT  =     F    use optional k-point grid
   KPOINTS_OPT_MODE=     1    mode for optional k-point grid
 
 Orbital magnetization related:
   ORBITALMAG=     F  switch on orbital magnetization
   LCHIMAG   =     F  perturbation theory with respect to B field
   DQ        =  0.001000  dq finite difference perturbation B field
   LLRAUG    =     F  two centre corrections for induced B field
   LBONE     =     F  B-component reconstruction in AE one-centre
   LVGVCALC  =     T  calculate vGv susceptibility
   LVGVAPPL  =     F  apply vGv susceptibility instead of pGv for G=0

 Random number generation:
   RANDOM_GENERATOR = DEFAULT
   PCG_SEED         = not used


--------------------------------------------------------------------------------------------------------


 quasi-Newton-method for relaxation of ions
   using selective dynamics as specified on POSCAR
 charge density and potential will be updated during run
 non-spin polarized calculation
 Variant of blocked Davidson
 Davidson routine will perform the subspace rotation
 perform sub-space diagonalisation
    after iterative eigenvector-optimisation
 modified Broyden-mixing scheme, WC =      100.0
 initial mixing is a Kerker type mixing with AMIX =  0.4000 and BMIX =      1.0000
 Hartree-type preconditioning will be used
 using additional bands           105
 real space projection scheme for non local part
 use partial core corrections
 calculate Harris-corrections to forces 
   (improved forces if not selfconsistent)
 use gradient corrections 
 use of overlap-Matrix (Vanderbilt PP)
 Methfessel and Paxton  Order N= 1 SIGMA  =   0.10


--------------------------------------------------------------------------------------------------------


  energy-cutoff  :      400.00
  volume of cell :     3322.68
      direct lattice vectors                 reciprocal lattice vectors
    10.281332598  0.000000000  0.000000000     0.097263656 -0.056155198  0.000000000
     5.140666299  8.903895215  0.000000000     0.000000000  0.112310396  0.000000000
     0.000000000  0.000000000 36.296004686     0.000000000  0.000000000  0.027551242

  length of vectors
    10.281332598 10.281332598 36.296004686     0.112310396  0.112310396  0.027551242


 
 k-points in units of 2pi/SCALE and weight: Gamma-centered 3x3x1                    
   0.00000000  0.00000000  0.00000000       0.111
   0.03242122 -0.01871840  0.00000000       0.444
   0.00000000  0.03743680  0.00000000       0.222
  -0.03242122  0.05615520  0.00000000       0.222
 
 k-points in reciprocal lattice and weights: Gamma-centered 3x3x1                    
   0.00000000  0.00000000  0.00000000       0.111
   0.33333333  0.00000000  0.00000000       0.444
   0.00000000  0.33333333  0.00000000       0.222
  -0.33333333  0.33333333  0.00000000       0.222
 
 position of ions in fractional coordinates (direct lattice) 
   0.49449846  0.26143007  0.58963702
   0.99409491  0.26124247  0.58953935
   0.24466262  0.26124247  0.58953935
   0.74407147  0.26143007  0.58963702
   0.00756718  0.98525355  0.59049553
   0.25736996  0.98526007  0.59010050
   0.50717928  0.98525355  0.59049553
   0.75739293  0.98521414  0.58870186
   0.66659782  0.66569311  0.52540380
   0.41724687  0.66550626  0.52564531
   0.16770906  0.66569311  0.52540380
   0.91768332  0.66463336  0.52543841
   0.00000000  0.00000000  0.41326863
   0.66695541  0.41623224  0.52562548
   0.41681235  0.41623224  0.52562548
   0.16331513  0.41913961  0.52684813
   0.91754526  0.41913961  0.52684813
   0.66708718  0.16582565  0.52615084
   0.41700136  0.16538866  0.52667354
   0.91800978  0.91421283  0.52577787
   0.16765813  0.91486221  0.52619521
   0.66777739  0.91421283  0.52577787
   0.16723646  0.16552708  0.52662994
   0.99452059  0.51095882  0.58526199
   0.24903287  0.50891772  0.58141917
   0.49554259  0.50891482  0.58240494
   0.74204940  0.50891772  0.58141917
   0.00878096  0.73915287  0.58144655
   0.25718349  0.73854375  0.58265951
   0.41747966  0.91486221  0.52619521
   0.91760998  0.16538866  0.52667354
   0.83333333  0.83333333  0.47108954
   0.58333333  0.83333333  0.47108954
   0.25000000  0.00000000  0.41326863
   0.50000000  0.00000000  0.41326863
   0.75000000  0.00000000  0.41326863
   0.00000000  0.25000000  0.41326863
   0.25000000  0.25000000  0.41326863
   0.50000000  0.25000000  0.41326863
   0.75000000  0.25000000  0.41326863
   0.00000000  0.50000000  0.41326863
   0.25000000  0.50000000  0.41326863
   0.50000000  0.50000000  0.41326863
   0.75000000  0.50000000  0.41326863
   0.00000000  0.75000000  0.41326863
   0.25000000  0.75000000  0.41326863
   0.50000000  0.75000000  0.41326863
   0.75000000  0.75000000  0.41326863
   0.08333333  0.08333333  0.47108954
   0.33333333  0.08333333  0.47108954
   0.58333333  0.08333333  0.47108954
   0.83333333  0.08333333  0.47108954
   0.08333333  0.33333333  0.47108954
   0.33333333  0.33333333  0.47108954
   0.58333333  0.33333333  0.47108954
   0.83333333  0.33333333  0.47108954
   0.08333333  0.58333333  0.47108954
   0.33333333  0.58333333  0.47108954
   0.58333333  0.58333333  0.47108954
   0.83333333  0.58333333  0.47108954
   0.08333333  0.83333333  0.47108954
   0.33333333  0.83333333  0.47108954
   0.50427276  0.73854375  0.58265951
   0.75206617  0.73915287  0.58144655
   0.94410621  0.61178758  0.63047996
   0.92623826  0.64752348  0.66127299
 
 position of ions in cartesian coordinates  (Angst):
   6.42802790  2.32774594 21.40146804
  11.56358074  2.32607555 21.39792303
   3.85841816  2.32607555 21.39792303
   8.99397100  2.32774594 21.40146804
   5.14266036  8.77259435 21.43262861
   7.71099945  8.77265247 21.41829057
  10.27933854  8.77259435 21.43262861
  12.85166575  8.77224348 21.36752556
  10.27562009  5.92726171 19.07005886
   7.71099945  5.92559801 19.07882446
   5.14637881  5.92726171 19.07005886
  12.85166575  5.91782579 19.07131492
   0.00000000  0.00000000 15.00000000
   8.99690146  3.70608826 19.07810506
   6.42509744  3.70608826 19.07810506
   3.83375406  3.73197521 19.12248221
  11.58824484  3.73197521 19.12248221
   7.71099945  1.47649421 19.09717323
   5.13753761  1.47260329 19.11614518
  14.13802694  8.14005528 19.08363601
   6.42675032  8.14583727 19.09878397
  11.56530455  8.14005528 19.08363601
   2.57033315  1.47383576 19.11456266
  12.85166575  4.54952376 21.24267207
   5.17656599  4.53135007 21.10319284
   7.71099945  4.53132421 21.13897251
  10.24543291  4.53135007 21.10319284
   3.89001825  6.58133973 21.10418678
   6.44079601  6.57591616 21.14821218
   8.99524857  8.14583727 19.09878397
  10.28446129  1.47260329 19.11614518
  12.85166575  7.41991268 17.09866823
  10.28133260  7.41991268 17.09866823
   2.57033315  0.00000000 15.00000000
   5.14066630  0.00000000 15.00000000
   7.71099945  0.00000000 15.00000000
   1.28516657  2.22597380 15.00000000
   3.85549972  2.22597380 15.00000000
   6.42583287  2.22597380 15.00000000
   8.99616602  2.22597380 15.00000000
   2.57033315  4.45194761 15.00000000
   5.14066630  4.45194761 15.00000000
   7.71099945  4.45194761 15.00000000
  10.28133260  4.45194761 15.00000000
   3.85549972  6.67792141 15.00000000
   6.42583287  6.67792141 15.00000000
   8.99616602  6.67792141 15.00000000
  11.56649917  6.67792141 15.00000000
   1.28516657  0.74199127 17.09866823
   3.85549972  0.74199127 17.09866823
   6.42583287  0.74199127 17.09866823
   8.99616602  0.74199127 17.09866823
   2.57033315  2.96796507 17.09866823
   5.14066630  2.96796507 17.09866823
   7.71099945  2.96796507 17.09866823
  10.28133260  2.96796507 17.09866823
   3.85549972  5.19393888 17.09866823
   6.42583287  5.19393888 17.09866823
   8.99616602  5.19393888 17.09866823
  11.56649917  5.19393888 17.09866823
   5.14066630  7.41991268 17.09866823
   7.71099945  7.41991268 17.09866823
   8.98120289  6.57591616 21.14821218
  11.53198065  6.58133973 21.10418678
  12.85166575  5.44729250 22.88390343
  12.85166575  5.76548118 24.00156758
 


--------------------------------------------------------------------------------------------------------


 k-point     1 :   0.0000 0.0000 0.0000  plane waves:   60263
 k-point     2 :   0.3333 0.0000 0.0000  plane waves:   60381
 k-point     3 :   0.0000 0.3333 0.0000  plane waves:   60381
 k-point     4 :  -0.3333 0.3333 0.0000  plane waves:   60237

 maximum and minimum number of plane-waves per node :     60381    60237

 maximum number of plane-waves:     60381
 maximum index in each direction: 
   IXMAX=   17   IYMAX=   16   IZMAX=   59
   IXMIN=  -17   IYMIN=  -17   IZMIN=  -59


 serial   3D FFT for wavefunctions
 parallel 3D FFT for charge:
    minimum data exchange during FFTs selected (reduces bandwidth)


 total amount of memory used by VASP MPI-rank0  2928787. kBytes
=======================================================================

   base                                    :      30000. kBytes
   nonlr-proj                              :      14626. kBytes
   fftplans                                :     123120. kBytes
   grid                                    :     278360. kBytes
   one-center                              :       1026. kBytes
   wavefun                                 :    2481655. kBytes
 
     INWAV:  cpu time      0.0001: real time      0.0002
 Broyden mixing: mesh for mixing (old mesh)
   NGX = 33   NGY = 33   NGZ =119
  (NGX  =100   NGY  =100   NGZ  =360)
  gives a total of 129591 points

 initial charge density was supplied:
 charge density of overlapping atoms calculated
 number of electron    1050.0000000 magnetization 
 keeping initial charge density in first step


--------------------------------------------------------------------------------------------------------


 Maximum index for non-local projection operator          1900
 Maximum index for augmentation-charges          8033 (set IRDMAX)


--------------------------------------------------------------------------------------------------------


 First call to EWALD:  gamma=   0.119
 Maximum number of real-space cells   4x   4x   1
 Maximum number of reciprocal cells   2x   2x   6

    FEWALD:  cpu time      0.2047: real time      0.2055


--------------------------------------- Ionic step        1  -------------------------------------------




--------------------------------------- Iteration      1(   1)  ---------------------------------------


    POTLOK:  cpu time      0.0377: real time      0.0422
    SETDIJ:  cpu time      0.0617: real time      0.0619
     EDDAV:  cpu time      5.1033: real time      5.1418
       DOS:  cpu time      0.0015: real time      0.0015
    --------------------------------------------
      LOOP:  cpu time      5.2042: real time      5.2473

 eigenvalue-minimisations  :  6360
 total energy-change (2. order) : 0.8393135E+04  (-0.6537011E+05)
 number of electron    1050.0000000 magnetization 
 augmentation part     1050.0000000 magnetization 

 Free energy of the ion-electron system (eV)
  ---------------------------------------------------
  alpha Z        PSCENC =      2165.16419905
  Ewald energy   TEWEN  =   1845980.61253633
  -Hartree energ DENC   =  -2058666.48539555
  -exchange      EXHF   =         0.00000000
  -V(xc)+E(xc)   XCENC  =      6225.48309307
  PAW double counting   =    202320.93119409  -210507.88163038
  entropy T*S    EENTRO =         0.00160096
  eigenvalues    EBANDS =    -17833.87203679
  atomic energy  EATOM  =    238709.18141649
  Solvation  Ediel_sol  =         0.00000000
  ---------------------------------------------------
  free energy    TOTEN  =      8393.13497728 eV

  energy without entropy =     8393.13337632  energy(sigma->0) =     8393.13444362


--------------------------------------------------------------------------------------------------------




--------------------------------------- Iteration      1(   2)  ---------------------------------------


     EDDAV:  cpu time      4.3118: real time      4.3340
       DOS:  cpu time      0.0018: real time      0.0018
    --------------------------------------------
      LOOP:  cpu time      4.3136: real time      4.3357

 eigenvalue-minimisations  :  5424
 total energy-change (2. order) :-0.8281336E+04  (-0.8084227E+04)
 number of electron    1050.0000000 magnetization 
 augmentation part     1050.0000000 magnetization 

 Free energy of the ion-electron system (eV)
  ---------------------------------------------------
  alpha Z        PSCENC =      2165.16419905
  Ewald energy   TEWEN  =   1845980.61253633
  -Hartree energ DENC   =  -2058666.48539555
  -exchange      EXHF   =         0.00000000
  -V(xc)+E(xc)   XCENC  =      6225.48309307
  PAW double counting   =    202320.93119409  -210507.88163038
  entropy T*S    EENTRO =         0.00812231
  eigenvalues    EBANDS =    -26115.21441821
  atomic energy  EATOM  =    238709.18141649
  Solvation  Ediel_sol  =         0.00000000
  ---------------------------------------------------
  free energy    TOTEN  =       111.79911720 eV

  energy without entropy =      111.79099489  energy(sigma->0) =      111.79640976


--------------------------------------------------------------------------------------------------------




--------------------------------------- Iteration      1(   3)  ---------------------------------------


     EDDAV:  cpu time      4.3980: real time      4.4209
       DOS:  cpu time      0.0017: real time      0.0017
    --------------------------------------------
      LOOP:  cpu time      4.3997: real time      4.4226

 eigenvalue-minimisations  :  5560
 total energy-change (2. order) :-0.3894273E+03  (-0.3817236E+03)
 number of electron    1050.0000000 magnetization 
 augmentation part     1050.0000000 magnetization 

 Free energy of the ion-electron system (eV)
  ---------------------------------------------------
  alpha Z        PSCENC =      2165.16419905
  Ewald energy   TEWEN  =   1845980.61253633
  -Hartree energ DENC   =  -2058666.48539555
  -exchange      EXHF   =         0.00000000
  -V(xc)+E(xc)   XCENC  =      6225.48309307
  PAW double counting   =    202320.93119409  -210507.88163038
  entropy T*S    EENTRO =        -0.03895859
  eigenvalues    EBANDS =    -26504.59464721
  atomic energy  EATOM  =    238709.18141649
  Solvation  Ediel_sol  =         0.00000000
  ---------------------------------------------------
  free energy    TOTEN  =      -277.62819270 eV

  energy without entropy =     -277.58923411  energy(sigma->0) =     -277.61520650


--------------------------------------------------------------------------------------------------------




--------------------------------------- Iteration      1(   4)  ---------------------------------------


     EDDAV:  cpu time      4.3374: real time      4.3741
       DOS:  cpu time      0.0018: real time      0.0018
    --------------------------------------------
      LOOP:  cpu time      4.3392: real time      4.3759

 eigenvalue-minimisations  :  5456
 total energy-change (2. order) :-0.8387715E+01  (-0.8287636E+01)
 number of electron    1050.0000000 magnetization 
 augmentation part     1050.0000000 magnetization 

 Free energy of the ion-electron system (eV)
  ---------------------------------------------------
  alpha Z        PSCENC =      2165.16419905
  Ewald energy   TEWEN  =   1845980.61253633
  -Hartree energ DENC   =  -2058666.48539555
  -exchange      EXHF   =         0.00000000
  -V(xc)+E(xc)   XCENC  =      6225.48309307
  PAW double counting   =    202320.93119409  -210507.88163038
  entropy T*S    EENTRO =        -0.02669776
  eigenvalues    EBANDS =    -26512.99462288
  atomic energy  EATOM  =    238709.18141649
  Solvation  Ediel_sol  =         0.00000000
  ---------------------------------------------------
  free energy    TOTEN  =      -286.01590753 eV

  energy without entropy =     -285.98920977  energy(sigma->0) =     -286.00700828


--------------------------------------------------------------------------------------------------------




--------------------------------------- Iteration      1(   5)  ---------------------------------------


     EDDAV:  cpu time      4.7077: real time      4.7338
       DOS:  cpu time      0.0019: real time      0.0019
    CHARGE:  cpu time      0.5021: real time      0.5046
    MIXING:  cpu time      0.0697: real time      0.0699
    --------------------------------------------
      LOOP:  cpu time      5.2814: real time      5.3103

 eigenvalue-minimisations  :  6056
 total energy-change (2. order) :-0.2962458E+00  (-0.2961065E+00)
 number of electron    1049.9999306 magnetization 
 augmentation part      612.6928942 magnetization 

 Broyden mixing:
  rms(total) = 0.71432E+01    rms(broyden)= 0.71416E+01
  rms(prec ) = 0.72571E+01
  weight for this iteration     100.00

 Free energy of the ion-electron system (eV)
  ---------------------------------------------------
  alpha Z        PSCENC =      2165.16419905
  Ewald energy   TEWEN  =   1845980.61253633
  -Hartree energ DENC   =  -2058666.48539555
  -exchange      EXHF   =         0.00000000
  -V(xc)+E(xc)   XCENC  =      6225.48309307
  PAW double counting   =    202320.93119409  -210507.88163038
  entropy T*S    EENTRO =        -0.02661549
  eigenvalues    EBANDS =    -26513.29095094
  atomic energy  EATOM  =    238709.18141649
  Solvation  Ediel_sol  =         0.00000000
  ---------------------------------------------------
  free energy    TOTEN  =      -286.31215332 eV

  energy without entropy =     -286.28553783  energy(sigma->0) =     -286.30328149


--------------------------------------------------------------------------------------------------------




--------------------------------------- Iteration      1(   6)  ---------------------------------------


    POTLOK:  cpu time      0.0240: real time      0.0252
    SETDIJ:  cpu time      0.0617: real time      0.0619
     EDDAV:  cpu time      4.3475: real time      4.3693
       DOS:  cpu time      0.0014: real time      0.0014
    CHARGE:  cpu time      0.4688: real time      0.4710
    MIXING:  cpu time      0.0703: real time      0.0706
    --------------------------------------------
      LOOP:  cpu time      4.9738: real time      4.9994

 eigenvalue-minimisations  :  5480
 total energy-change (2. order) : 0.1824834E+02  (-0.5927712E+02)
 number of electron    1049.9999167 magnetization 
 augmentation part      658.1425837 magnetization 

 Broyden mixing:
  rms(total) = 0.86028E+01    rms(broyden)= 0.86022E+01
  rms(prec ) = 0.86546E+01
  weight for this iteration     100.00

 eigenvalues of (default mixing * dielectric matrix)
  average eigenvalue GAMMA=   0.4046
  0.4046

 Free energy of the ion-electron system (eV)
  ---------------------------------------------------
  alpha Z        PSCENC =      2165.16419905
  Ewald energy   TEWEN  =   1845980.61253633
  -Hartree energ DENC   =  -2055357.87670639
  -exchange      EXHF   =         0.00000000
  -V(xc)+E(xc)   XCENC  =      6114.86289267
  PAW double counting   =    200996.28636815  -208995.84641866
  entropy T*S    EENTRO =         0.00635779
  eigenvalues    EBANDS =    -29880.45446165
  atomic energy  EATOM  =    238709.18141649
  Solvation  Ediel_sol  =         0.00000000
  ---------------------------------------------------
  free energy    TOTEN  =      -268.06381622 eV

  energy without entropy =     -268.07017401  energy(sigma->0) =     -268.06593549


--------------------------------------------------------------------------------------------------------




--------------------------------------- Iteration      1(   7)  ---------------------------------------


    POTLOK:  cpu time      0.0236: real time      0.0251
    SETDIJ:  cpu time      0.0612: real time      0.0614
     EDDAV:  cpu time      4.4560: real time      4.4781
       DOS:  cpu time      0.0016: real time      0.0016
    CHARGE:  cpu time      0.4577: real time      0.4597
    MIXING:  cpu time      0.0712: real time      0.0715
    --------------------------------------------
      LOOP:  cpu time      5.0713: real time      5.0973

 eigenvalue-minimisations  :  5672
 total energy-change (2. order) : 0.2647006E+02  (-0.7580070E+01)
 number of electron    1049.9999191 magnetization 
 augmentation part      647.3591171 magnetization 

 Broyden mixing:
  rms(total) = 0.36601E+01    rms(broyden)= 0.36600E+01
  rms(prec ) = 0.36816E+01
  weight for this iteration     100.00

 eigenvalues of (default mixing * dielectric matrix)
  average eigenvalue GAMMA=   0.7360
  0.7700  0.7021

 Free energy of the ion-electron system (eV)
  ---------------------------------------------------
  alpha Z        PSCENC =      2165.16419905
  Ewald energy   TEWEN  =   1845980.61253633
  -Hartree energ DENC   =  -2056501.65831984
  -exchange      EXHF   =         0.00000000
  -V(xc)+E(xc)   XCENC  =      6142.46156411
  PAW double counting   =    204631.42024125  -212819.06726180
  entropy T*S    EENTRO =         0.00143299
  eigenvalues    EBANDS =    -28549.70956170
  atomic energy  EATOM  =    238709.18141649
  Solvation  Ediel_sol  =         0.00000000
  ---------------------------------------------------
  free energy    TOTEN  =      -241.59375312 eV

  energy without entropy =     -241.59518611  energy(sigma->0) =     -241.59423079


--------------------------------------------------------------------------------------------------------




--------------------------------------- Iteration      1(   8)  ---------------------------------------


    POTLOK:  cpu time      0.0202: real time      0.0205
    SETDIJ:  cpu time      0.0619: real time      0.0620
     EDDAV:  cpu time      4.7486: real time      4.7703
       DOS:  cpu time      0.0017: real time      0.0017
    CHARGE:  cpu time      0.4649: real time      0.4670
    MIXING:  cpu time      0.0758: real time      0.0761
    --------------------------------------------
      LOOP:  cpu time      5.3731: real time      5.3976

 eigenvalue-minimisations  :  6150
 total energy-change (2. order) : 0.4660698E+00  (-0.2367155E+01)
 number of electron    1049.9999290 magnetization 
 augmentation part      640.7241310 magnetization 

 Broyden mixing:
  rms(total) = 0.21879E+01    rms(broyden)= 0.21875E+01
  rms(prec ) = 0.23901E+01
  weight for this iteration     100.00

 eigenvalues of (default mixing * dielectric matrix)
  average eigenvalue GAMMA=   0.8505
  1.3371  0.6072  0.6072

 Free energy of the ion-electron system (eV)
  ---------------------------------------------------
  alpha Z        PSCENC =      2165.16419905
  Ewald energy   TEWEN  =   1845980.61253633
  -Hartree energ DENC   =  -2057084.31212543
  -exchange      EXHF   =         0.00000000
  -V(xc)+E(xc)   XCENC  =      6156.29955739
  PAW double counting   =    207879.51021495  -216224.49695519
  entropy T*S    EENTRO =         0.05461153
  eigenvalues    EBANDS =    -27823.14113842
  atomic energy  EATOM  =    238709.18141649
  Solvation  Ediel_sol  =         0.00000000
  ---------------------------------------------------
  free energy    TOTEN  =      -241.12768330 eV

  energy without entropy =     -241.18229483  energy(sigma->0) =     -241.14588714


--------------------------------------------------------------------------------------------------------




--------------------------------------- Iteration      1(   9)  ---------------------------------------


    POTLOK:  cpu time      0.0193: real time      0.0203
    SETDIJ:  cpu time      0.0616: real time      0.0619
     EDDAV:  cpu time      4.4572: real time      4.4783
       DOS:  cpu time      0.0019: real time      0.0019
    CHARGE:  cpu time      0.4748: real time      0.4770
    MIXING:  cpu time      0.0766: real time      0.0769
    --------------------------------------------
      LOOP:  cpu time      5.0915: real time      5.1163

 eigenvalue-minimisations  :  5648
 total energy-change (2. order) :-0.1333502E+02  (-0.5615329E+01)
 number of electron    1049.9998727 magnetization 
 augmentation part      635.3270202 magnetization 

 Broyden mixing:
  rms(total) = 0.40211E+01    rms(broyden)= 0.40187E+01
  rms(prec ) = 0.45342E+01
  weight for this iteration     100.00

 eigenvalues of (default mixing * dielectric matrix)
  average eigenvalue GAMMA=   0.9027
  2.1888  0.6080  0.6080  0.2060

 Free energy of the ion-electron system (eV)
  ---------------------------------------------------
  alpha Z        PSCENC =      2165.16419905
  Ewald energy   TEWEN  =   1845980.61253633
  -Hartree energ DENC   =  -2057147.80971015
  -exchange      EXHF   =         0.00000000
  -V(xc)+E(xc)   XCENC  =      6155.52652513
  PAW double counting   =    209058.60004365  -217473.81061591
  entropy T*S    EENTRO =        -0.01168263
  eigenvalues    EBANDS =    -27701.91541322
  atomic energy  EATOM  =    238709.18141649
  Solvation  Ediel_sol  =         0.00000000
  ---------------------------------------------------
  free energy    TOTEN  =      -254.46270125 eV

  energy without entropy =     -254.45101862  energy(sigma->0) =     -254.45880704


--------------------------------------------------------------------------------------------------------




--------------------------------------- Iteration      1(  10)  ---------------------------------------


    POTLOK:  cpu time      0.0226: real time      0.0228
    SETDIJ:  cpu time      0.0626: real time      0.0628
     EDDAV:  cpu time      4.4198: real time      4.4424
       DOS:  cpu time      0.0017: real time      0.0017
    CHARGE:  cpu time      0.4583: real time      0.4604
    MIXING:  cpu time      0.0762: real time      0.0765
    --------------------------------------------
      LOOP:  cpu time      5.0412: real time      5.0667

 eigenvalue-minimisations  :  5612
 total energy-change (2. order) : 0.1529434E+02  (-0.2984034E+01)
 number of electron    1049.9999353 magnetization 
 augmentation part      639.4335136 magnetization 

 Broyden mixing:
  rms(total) = 0.14122E+01    rms(broyden)= 0.14083E+01
  rms(prec ) = 0.14493E+01
  weight for this iteration     100.00

 eigenvalues of (default mixing * dielectric matrix)
  average eigenvalue GAMMA=   0.8135
  2.2575  0.6220  0.6220  0.3340  0.2323

 Free energy of the ion-electron system (eV)
  ---------------------------------------------------
  alpha Z        PSCENC =      2165.16419905
  Ewald energy   TEWEN  =   1845980.61253633
  -Hartree energ DENC   =  -2056962.75849277
  -exchange      EXHF   =         0.00000000
  -V(xc)+E(xc)   XCENC  =      6149.96972612
  PAW double counting   =    210332.81267986  -218818.14396312
  entropy T*S    EENTRO =        -0.02277036
  eigenvalues    EBANDS =    -27795.98369774
  atomic energy  EATOM  =    238709.18141649
  Solvation  Ediel_sol  =         0.00000000
  ---------------------------------------------------
  free energy    TOTEN  =      -239.16836613 eV

  energy without entropy =     -239.14559577  energy(sigma->0) =     -239.16077601


--------------------------------------------------------------------------------------------------------




--------------------------------------- Iteration      1(  11)  ---------------------------------------


    POTLOK:  cpu time      0.0192: real time      0.0195
    SETDIJ:  cpu time      0.0621: real time      0.0623
     EDDAV:  cpu time      4.6426: real time      4.6669
       DOS:  cpu time      0.0017: real time      0.0017
    CHARGE:  cpu time      0.4677: real time      0.4700
    MIXING:  cpu time      0.0774: real time      0.0777
    --------------------------------------------
      LOOP:  cpu time      5.2708: real time      5.2981

 eigenvalue-minimisations  :  5992
 total energy-change (2. order) : 0.1577146E+01  (-0.4305666E+00)
 number of electron    1049.9999208 magnetization 
 augmentation part      640.2224622 magnetization 

 Broyden mixing:
  rms(total) = 0.51134E+00    rms(broyden)= 0.51083E+00
  rms(prec ) = 0.53364E+00
  weight for this iteration     100.00

 eigenvalues of (default mixing * dielectric matrix)
  average eigenvalue GAMMA=   0.7610
  2.1590  0.5937  0.5937  0.5056  0.5056  0.2082

 Free energy of the ion-electron system (eV)
  ---------------------------------------------------
  alpha Z        PSCENC =      2165.16419905
  Ewald energy   TEWEN  =   1845980.61253633
  -Hartree energ DENC   =  -2056862.35876081
  -exchange      EXHF   =         0.00000000
  -V(xc)+E(xc)   XCENC  =      6148.88782591
  PAW double counting   =    210336.11860082  -218823.34087429
  entropy T*S    EENTRO =         0.00485464
  eigenvalues    EBANDS =    -27891.86101843
  atomic energy  EATOM  =    238709.18141649
  Solvation  Ediel_sol  =         0.00000000
  ---------------------------------------------------
  free energy    TOTEN  =      -237.59122029 eV

  energy without entropy =     -237.59607493  energy(sigma->0) =     -237.59283850


--------------------------------------------------------------------------------------------------------




--------------------------------------- Iteration      1(  12)  ---------------------------------------


    POTLOK:  cpu time      0.0219: real time      0.0222
    SETDIJ:  cpu time      0.0617: real time      0.0620
     EDDAV:  cpu time      4.3605: real time      4.3824
       DOS:  cpu time      0.0017: real time      0.0017
    CHARGE:  cpu time      0.4731: real time      0.4753
    MIXING:  cpu time      0.0803: real time      0.0807
    --------------------------------------------
      LOOP:  cpu time      4.9992: real time      5.0242

 eigenvalue-minimisations  :  5520
 total energy-change (2. order) :-0.1775261E+00  (-0.2918310E+00)
 number of electron    1049.9999208 magnetization 
 augmentation part      639.7753263 magnetization 

 Broyden mixing:
  rms(total) = 0.44873E+00    rms(broyden)= 0.44869E+00
  rms(prec ) = 0.47173E+00
  weight for this iteration     100.00

 eigenvalues of (default mixing * dielectric matrix)
  average eigenvalue GAMMA=   0.6961
  2.1740  0.5918  0.5918  0.5085  0.5085  0.2254  0.2729

 Free energy of the ion-electron system (eV)
  ---------------------------------------------------
  alpha Z        PSCENC =      2165.16419905
  Ewald energy   TEWEN  =   1845980.61253633
  -Hartree energ DENC   =  -2056961.12262438
  -exchange      EXHF   =         0.00000000
  -V(xc)+E(xc)   XCENC  =      6149.29665120
  PAW double counting   =    210288.34734650  -218768.16239357
  entropy T*S    EENTRO =        -0.00606908
  eigenvalues    EBANDS =    -27801.07980896
  atomic energy  EATOM  =    238709.18141649
  Solvation  Ediel_sol  =         0.00000000
  ---------------------------------------------------
  free energy    TOTEN  =      -237.76874643 eV

  energy without entropy =     -237.76267735  energy(sigma->0) =     -237.76672340


--------------------------------------------------------------------------------------------------------




--------------------------------------- Iteration      1(  13)  ---------------------------------------


    POTLOK:  cpu time      0.0223: real time      0.0229
    SETDIJ:  cpu time      0.0618: real time      0.0621
     EDDAV:  cpu time      4.4111: real time      4.4338
       DOS:  cpu time      0.0017: real time      0.0016
    CHARGE:  cpu time      0.4719: real time      0.4741
    MIXING:  cpu time      0.0866: real time      0.0870
    --------------------------------------------
      LOOP:  cpu time      5.0554: real time      5.0815

 eigenvalue-minimisations  :  5584
 total energy-change (2. order) : 0.4483638E-01  (-0.2662490E-01)
 number of electron    1049.9999204 magnetization 
 augmentation part      639.8782161 magnetization 

 Broyden mixing:
  rms(total) = 0.31579E+00    rms(broyden)= 0.31578E+00
  rms(prec ) = 0.32918E+00
  weight for this iteration     100.00

 eigenvalues of (default mixing * dielectric matrix)
  average eigenvalue GAMMA=   0.8465
  2.4553  1.0877  1.0877  0.5933  0.5933  0.4216  0.2134  0.3193

 Free energy of the ion-electron system (eV)
  ---------------------------------------------------
  alpha Z        PSCENC =      2165.16419905
  Ewald energy   TEWEN  =   1845980.61253633
  -Hartree energ DENC   =  -2056966.64968574
  -exchange      EXHF   =         0.00000000
  -V(xc)+E(xc)   XCENC  =      6149.09013554
  PAW double counting   =    210351.91399584  -218829.89319296
  entropy T*S    EENTRO =        -0.00295916
  eigenvalues    EBANDS =    -27797.14035543
  atomic energy  EATOM  =    238709.18141649
  Solvation  Ediel_sol  =         0.00000000
  ---------------------------------------------------
  free energy    TOTEN  =      -237.72391004 eV

  energy without entropy =     -237.72095088  energy(sigma->0) =     -237.72292365


--------------------------------------------------------------------------------------------------------




[...]
   -.108E+02 0.381E+03 -.687E+04   0.107E+02 -.379E+03 0.687E+04   0.228E-01 -.159E+01 0.516E+00   0.699E-04 0.460E-03 -.476E-03
   0.192E+02 0.410E+03 -.684E+04   -.193E+02 -.409E+03 0.684E+04   0.415E-01 -.150E+01 0.626E+00   -.182E-03 0.181E-03 -.398E-03
   -.192E+02 0.410E+03 -.684E+04   0.193E+02 -.409E+03 0.684E+04   -.415E-01 -.150E+01 0.626E+00   0.182E-03 0.181E-03 -.398E-03
   0.108E+02 0.381E+03 -.687E+04   -.107E+02 -.379E+03 0.687E+04   -.228E-01 -.159E+01 0.516E+00   -.699E-04 0.460E-03 -.476E-03
   -.121E+02 -.400E+03 -.689E+04   0.121E+02 0.398E+03 0.689E+04   0.144E-01 0.147E+01 0.410E+00   0.601E-04 -.260E-03 -.399E-03
   -.162E-03 -.382E+03 -.688E+04   -.189E-10 0.381E+03 0.688E+04   0.000E+00 0.153E+01 0.429E+00   0.140E-08 -.425E-03 -.383E-03
   0.121E+02 -.400E+03 -.689E+04   -.121E+02 0.398E+03 0.689E+04   -.144E-01 0.147E+01 0.410E+00   -.601E-04 -.260E-03 -.399E-03
   -.281E-03 -.427E+03 -.680E+04   0.102E-10 0.426E+03 0.680E+04   0.000E+00 0.148E+01 0.434E+00   -.291E-08 -.858E-04 -.453E-03
   0.219E+02 -.121E+03 -.366E+04   -.219E+02 0.121E+03 0.366E+04   -.247E-02 0.148E+00 0.130E+01   -.425E-04 -.471E-03 0.142E-02
   0.460E-04 -.123E+03 -.372E+04   -.818E-10 0.123E+03 0.372E+04   -.520E-17 -.308E-01 0.117E+01   0.244E-07 -.569E-03 0.197E-02
   -.219E+02 -.121E+03 -.366E+04   0.219E+02 0.121E+03 0.366E+04   0.247E-02 0.148E+00 0.130E+01   0.425E-04 -.471E-03 0.142E-02
   0.206E-03 -.116E+03 -.368E+04   -.101E-09 0.116E+03 0.368E+04   -.139E-16 0.400E+00 0.372E+00   0.389E-07 -.404E-04 0.684E-03
   -.254E+01 -.234E+02 0.101E+05   0.257E+01 0.234E+02 -.101E+05   -.211E-01 0.702E-04 -.343E+01   -.166E-03 0.404E-04 -.106E-02
   0.225E+01 0.474E+03 -.401E+04   -.215E+01 -.473E+03 0.400E+04   -.953E-01 -.760E+00 0.310E+01   -.112E-03 0.638E-03 0.120E-02
   -.225E+01 0.474E+03 -.401E+04   0.215E+01 -.473E+03 0.400E+04   0.953E-01 -.760E+00 0.310E+01   0.112E-03 0.638E-03 0.120E-02
   -.148E+02 0.510E+03 -.411E+04   0.145E+02 -.509E+03 0.411E+04   0.277E+00 -.118E+01 0.274E+01   0.344E-03 0.746E-03 0.682E-03
   0.148E+02 0.510E+03 -.411E+04   -.145E+02 -.509E+03 0.411E+04   -.277E+00 -.118E+01 0.274E+01   -.344E-03 0.746E-03 0.682E-03
   0.869E-04 0.100E+03 -.455E+04   -.610E-10 -.100E+03 0.455E+04   -.694E-17 -.769E-01 0.507E+01   0.105E-07 0.319E-03 0.304E-03
   0.557E+01 0.946E+02 -.460E+04   -.565E+01 -.945E+02 0.459E+04   0.841E-01 -.706E-01 0.519E+01   0.235E-03 0.308E-03 0.524E-03
   -.890E+01 -.477E+03 -.423E+04   0.883E+01 0.476E+03 0.423E+04   0.667E-01 0.638E+00 0.403E+01   -.159E-03 -.517E-03 0.640E-03
   -.730E+01 -.460E+03 -.429E+04   0.741E+01 0.460E+03 0.429E+04   -.109E+00 0.493E+00 0.390E+01   -.143E-03 -.647E-03 0.119E-02
   0.890E+01 -.477E+03 -.423E+04   -.883E+01 0.476E+03 0.423E+04   -.667E-01 0.638E+00 0.403E+01   0.159E-03 -.517E-03 0.640E-03
   0.201E-03 0.101E+03 -.458E+04   0.354E-10 -.101E+03 0.457E+04   0.694E-17 0.207E+00 0.526E+01   -.312E-07 0.241E-03 0.548E-03
   -.302E-03 0.722E+03 -.102E+05   0.989E-10 -.725E+03 0.102E+05   0.000E+00 0.286E+01 0.240E+01   -.641E-07 -.372E-03 -.239E-02
   -.536E+02 0.631E+03 -.102E+05   0.545E+02 -.629E+03 0.102E+05   -.958E+00 -.159E+01 0.277E+01   0.812E-03 0.500E-03 -.102E-02
   0.481E-05 0.612E+03 -.103E+05   -.176E-09 -.610E+03 0.103E+05   0.111E-15 -.199E+01 0.217E+01   -.267E-07 0.612E-03 -.982E-03
   0.536E+02 0.631E+03 -.102E+05   -.545E+02 -.629E+03 0.102E+05   0.958E+00 -.159E+01 0.277E+01   -.813E-03 0.500E-03 -.102E-02
   -.662E+02 -.663E+03 -.101E+05   0.691E+02 0.664E+03 0.101E+05   -.290E+01 -.548E+00 0.423E+01   0.876E-03 -.111E-03 -.170E-02
   -.280E+02 -.600E+03 -.103E+05   0.281E+02 0.598E+03 0.103E+05   -.554E-02 0.210E+01 0.220E+01   0.220E-03 -.920E-03 -.886E-03
   0.730E+01 -.460E+03 -.429E+04   -.741E+01 0.460E+03 0.429E+04   0.109E+00 0.493E+00 0.390E+01   0.143E-03 -.648E-03 0.119E-02
   -.557E+01 0.946E+02 -.460E+04   0.565E+01 -.945E+02 0.459E+04   -.841E-01 -.706E-01 0.519E+01   -.235E-03 0.308E-03 0.524E-03
   -.112E-03 -.125E+03 0.308E+04   0.988E-11 0.124E+03 -.307E+04   -.104E-16 0.105E+00 -.155E+01   0.639E-07 -.127E-03 -.654E-03
   0.104E+02 -.130E+03 0.307E+04   -.103E+02 0.130E+03 -.307E+04   -.711E-01 -.486E-01 -.131E+01   0.480E-03 -.163E-03 -.626E-03
   -.186E-04 -.238E+02 0.101E+05   0.889E-11 0.237E+02 -.101E+05   0.000E+00 0.964E-01 -.337E+01   -.621E-07 0.636E-04 -.121E-02
   0.254E+01 -.234E+02 0.101E+05   -.257E+01 0.234E+02 -.101E+05   0.211E-01 0.702E-04 -.343E+01   0.165E-03 0.403E-04 -.106E-02
   -.278E-04 -.225E+02 0.101E+05   0.417E-11 0.227E+02 -.101E+05   -.694E-17 -.987E-01 -.377E+01   -.659E-07 -.524E-04 -.811E-03
   -.168E+01 0.201E+02 0.101E+05   0.165E+01 -.201E+02 -.101E+05   0.240E-01 -.589E-01 -.398E+01   -.471E-04 0.102E-03 -.991E-03
   0.168E+01 0.201E+02 0.101E+05   -.165E+01 -.201E+02 -.101E+05   -.240E-01 -.589E-01 -.398E+01   0.471E-04 0.102E-03 -.991E-03
   0.262E+01 0.199E+02 0.101E+05   -.241E+01 -.199E+02 -.101E+05   -.181E+00 0.188E-01 -.330E+01   0.839E-04 -.642E-04 -.891E-03
   -.262E+01 0.199E+02 0.101E+05   0.241E+01 -.199E+02 -.101E+05   0.181E+00 0.188E-01 -.330E+01   -.840E-04 -.641E-04 -.891E-03
   0.141E-04 0.256E+02 0.101E+05   0.114E-10 -.256E+02 -.101E+05   -.347E-17 -.785E-01 -.351E+01   0.188E-08 0.291E-03 -.104E-02
   0.138E+01 0.238E+02 0.101E+05   -.143E+01 -.238E+02 -.101E+05   0.679E-01 -.310E-01 -.386E+01   -.206E-03 0.786E-04 -.102E-02
   0.182E-04 0.215E+02 0.101E+05   -.750E-12 -.214E+02 -.101E+05   0.694E-17 -.921E-01 -.312E+01   0.121E-06 -.439E-04 -.103E-02
   -.138E+01 0.238E+02 0.101E+05   0.143E+01 -.238E+02 -.101E+05   -.679E-01 -.310E-01 -.386E+01   0.206E-03 0.788E-04 -.102E-02
   -.968E+00 -.194E+02 0.101E+05   0.907E+00 0.193E+02 -.101E+05   0.605E-01 0.134E+00 -.370E+01   -.240E-03 -.164E-03 -.121E-02
   -.850E+00 -.216E+02 0.101E+05   0.986E+00 0.214E+02 -.101E+05   -.110E+00 0.164E+00 -.331E+01   -.855E-04 -.116E-03 -.138E-02
   0.850E+00 -.216E+02 0.101E+05   -.986E+00 0.214E+02 -.101E+05   0.110E+00 0.164E+00 -.331E+01   0.855E-04 -.116E-03 -.138E-02
   0.968E+00 -.194E+02 0.101E+05   -.907E+00 0.193E+02 -.101E+05   -.605E-01 0.134E+00 -.370E+01   0.240E-03 -.164E-03 -.121E-02
   -.416E+01 -.441E+02 0.290E+04   0.401E+01 0.441E+02 -.290E+04   0.126E+00 0.201E-02 -.130E+01   -.150E-03 0.231E-03 -.832E-03
   0.416E+01 -.441E+02 0.290E+04   -.401E+01 0.441E+02 -.290E+04   -.126E+00 0.201E-02 -.130E+01   0.150E-03 0.231E-03 -.832E-03
   0.107E+02 -.423E+02 0.291E+04   -.106E+02 0.425E+02 -.291E+04   -.826E-01 -.130E+00 -.135E+01   0.364E-03 0.135E-03 -.752E-03
   -.107E+02 -.423E+02 0.291E+04   0.106E+02 0.425E+02 -.291E+04   0.826E-01 -.130E+00 -.135E+01   -.364E-03 0.135E-03 -.752E-03
   -.533E-04 0.130E+03 0.297E+04   -.873E-11 -.130E+03 -.297E+04   -.347E-17 -.161E-01 -.150E+01   -.468E-07 0.385E-03 -.726E-03
   0.209E+02 0.127E+03 0.297E+04   -.209E+02 -.127E+03 -.297E+04   -.145E+00 0.465E-01 -.132E+01   0.151E-03 0.184E-03 -.592E-03
   -.516E-04 0.125E+03 0.300E+04   -.171E-10 -.125E+03 -.300E+04   0.347E-17 0.892E-01 -.121E+01   -.290E-07 -.151E-03 -.409E-03
   -.209E+02 0.127E+03 0.297E+04   0.209E+02 -.127E+03 -.297E+04   0.145E+00 0.465E-01 -.132E+01   -.151E-03 0.184E-03 -.592E-03
   -.388E+01 0.553E+02 0.316E+04   0.376E+01 -.554E+02 -.316E+04   0.139E+00 0.853E-02 -.145E+01   -.210E-03 -.282E-04 -.465E-03
   -.164E+01 0.369E+02 0.316E+04   0.174E+01 -.371E+02 -.316E+04   -.806E-01 0.124E+00 -.122E+01   -.211E-03 -.435E-03 -.362E-03
   0.164E+01 0.369E+02 0.316E+04   -.174E+01 -.371E+02 -.316E+04   0.806E-01 0.124E+00 -.122E+01   0.212E-03 -.435E-03 -.362E-03
   0.388E+01 0.553E+02 0.316E+04   -.376E+01 -.554E+02 -.316E+04   -.139E+00 0.853E-02 -.145E+01   0.210E-03 -.282E-04 -.465E-03
   -.104E+02 -.130E+03 0.307E+04   0.103E+02 0.130E+03 -.307E+04   0.711E-01 -.486E-01 -.131E+01   -.480E-03 -.163E-03 -.626E-03
   -.119E-03 -.130E+03 0.306E+04   -.265E-10 0.130E+03 -.306E+04   -.694E-17 0.500E-01 -.127E+01   0.216E-07 -.517E-04 -.635E-03
   0.280E+02 -.600E+03 -.103E+05   -.281E+02 0.598E+03 0.103E+05   0.554E-02 0.210E+01 0.220E+01   -.220E-03 -.920E-03 -.886E-03
   0.662E+02 -.663E+03 -.101E+05   -.691E+02 0.664E+03 0.101E+05   0.290E+01 -.548E+00 0.423E+01   -.876E-03 -.111E-03 -.170E-02
   0.189E-03 0.267E+02 -.285E+04   0.128E-10 -.329E+02 0.283E+04   0.000E+00 0.624E+01 0.163E+02   0.667E-08 -.428E-04 -.687E-03
   -.558E-03 -.684E+02 -.436E+04   -.284E-11 0.848E+02 0.441E+04   0.000E+00 -.163E+02 -.578E+02   0.699E-08 0.225E-03 0.171E-03
 -----------------------------------------------------------------------------------------------
   -.568E-03 0.978E+01 0.423E+02   -.293E-12 -.195E-11 0.900E-10   0.000E+00 -.996E+01 -.405E+02   -.163E-06 -.408E-03 -.265E-01
 
 
 POSITION                                       TOTAL-FORCE (eV/Angst)
 -----------------------------------------------------------------------------------
      6.42803      2.32775     21.40147         0.000079      0.001588     -0.000177
     11.56358      2.32608     21.39792        -0.001069     -0.000517     -0.000452
      3.85842      2.32608     21.39792         0.001069     -0.000517     -0.000452
      8.99397      2.32775     21.40147        -0.000079      0.001588     -0.000177
      5.14266      8.77259     21.43263         0.000539     -0.000687     -0.001748
      7.71100      8.77265     21.41829        -0.000000     -0.000630     -0.001832
     10.27934      8.77259     21.43263        -0.000539     -0.000687     -0.001748
     12.85167      8.77224     21.36753        -0.000000      0.000677     -0.003401
     10.27562      5.92726     19.07006         0.004187      0.000333      0.004637
      7.71100      5.92560     19.07882        -0.000000     -0.001360     -0.000537
      5.14638      5.92726     19.07006        -0.004187      0.000333      0.004637
     12.85167      5.91783     19.07131        -0.000000      0.006928     -0.004634
      0.00000      0.00000     15.00000         0.008137      0.017818      0.356005
      8.99690      3.70609     19.07811         0.001177      0.000119      0.000203
      6.42510      3.70609     19.07811        -0.001177      0.000119      0.000203
      3.83375      3.73198     19.12248         0.001028     -0.000926     -0.003883
     11.58824      3.73198     19.12248        -0.001028     -0.000926     -0.003883
      7.71100      1.47649     19.09717        -0.000000      0.004757     -0.001024
      5.13754      1.47260     19.11615         0.000912     -0.000305     -0.001063
     14.13803      8.14006     19.08364        -0.002019     -0.007081      0.002146
      6.42675      8.14584     19.09878         0.000139      0.000822      0.000209
     11.56530      8.14006     19.08364         0.002019     -0.007081      0.002146
      2.57033      1.47384     19.11456        -0.000000     -0.000947     -0.001962
     12.85167      4.54952     21.24267        -0.000000     -0.011944     -0.020488
      5.17657      4.53135     21.10319        -0.001752      0.000834     -0.000735
      7.71100      4.53132     21.13897         0.000000     -0.005731      0.000438
     10.24543      4.53135     21.10319         0.001752      0.000834     -0.000735
      3.89002      6.58134     21.10419        -0.005978     -0.004271      0.020604
      6.44080      6.57592     21.14821        -0.001720     -0.000619      0.001110
      8.99525      8.14584     19.09878        -0.000139      0.000822      0.000209
     10.28446      1.47260     19.11615        -0.000912     -0.000305     -0.001063
     12.85167      7.41991     17.09867        -0.000000      0.021795     -0.428165
     10.28133      7.41991     17.09867        -0.015897      0.052444     -0.377947
      2.57033      0.00000     15.00000        -0.000000      0.002143      0.323493
      5.14067      0.00000     15.00000        -0.008137      0.017818      0.356005
      7.71100      0.00000     15.00000        -0.000000      0.050945      0.313147
      1.28517      2.22597     15.00000        -0.004215     -0.005731      0.328743
      3.85550      2.22597     15.00000         0.004215     -0.005731      0.328743
      6.42583      2.22597     15.00000         0.026789      0.002808      0.323963
      8.99617      2.22597     15.00000        -0.026789      0.002808      0.323963
      2.57033      4.45195     15.00000         0.000000      0.011012      0.394927
      5.14067      4.45195     15.00000         0.016637     -0.002605      0.323334
      7.71100      4.45195     15.00000        -0.000000     -0.000253      0.356148
     10.28133      4.45195     15.00000        -0.016637     -0.002605      0.323334
      3.85550      6.67792     15.00000        -0.000536     -0.009770      0.351714
      6.42583      6.67792     15.00000         0.026285      0.000780      0.317847
      8.99617      6.67792     15.00000        -0.026285      0.000780      0.317847
     11.56650      6.67792     15.00000         0.000536     -0.009770      0.351714
      1.28517      0.74199     17.09867        -0.016150      0.025005     -0.209907
      3.85550      0.74199     17.09867         0.016150      0.025005     -0.209907
      6.42583      0.74199     17.09867        -0.026804      0.019958     -0.246805
      8.99617      0.74199     17.09867         0.026804      0.019958     -0.246805
      2.57033      2.96797     17.09867        -0.000000     -0.015081     -0.253532
      5.14067      2.96797     17.09867        -0.073505     -0.018972     -0.235900
      7.71100      2.96797     17.09867        -0.000000     -0.033413     -0.384109
     10.28133      2.96797     17.09867         0.073505     -0.018972     -0.235900
      3.85550      5.19394     17.09867         0.016983     -0.073717     -0.459179
      6.42583      5.19394     17.09867         0.021942     -0.042471     -0.449557
      8.99617      5.19394     17.09867        -0.021942     -0.042471     -0.449557
     11.56650      5.19394     17.09867        -0.016983     -0.073717     -0.459179
      5.14067      7.41991     17.09867         0.015897      0.052444     -0.377947
      7.71100      7.41991     17.09867        -0.000000      0.021174     -0.339710
      8.98120      6.57592     21.14821         0.001720     -0.000619      0.001110
     11.53198      6.58134     21.10419         0.005978     -0.004271      0.020604
     12.85167      5.44729     22.88390        -0.000000      0.028873     -0.022503
     12.85167      5.76548     24.00157         0.000000      0.011382     -0.012572
 -----------------------------------------------------------------------------------
    total drift:                               -0.000568     -0.178837      1.789227


--------------------------------------------------------------------------------------------------------



  FREE ENERGIE OF THE ION-ELECTRON SYSTEM (eV)
  ---------------------------------------------------
  free  energy   TOTEN  =      -266.75196857 eV

  energy  without entropy=     -266.74354920  energy(sigma->0) =     -266.74916212
 


--------------------------------------------------------------------------------------------------------


    POTLOK:  cpu time      0.0962: real time      0.0965


--------------------------------------------------------------------------------------------------------


 Quasi-Newton relaxation of ions (Broydens 2nd method)
  g(Force)  = 0.172E-03   g(Stress)= 0.000E+00

 Reset! Starting new Quasi-Newton update for ions 


--------------------------------------------------------------------------------------------------------


  
 reached required accuracy - stopping structural energy minimisation
 writing wavefunctions
     LOOP+:  cpu time    171.0103: real time    171.9281
    4ORBIT:  cpu time      0.0000: real time      0.0000



 total charge

# of ion       s       p       d       tot
------------------------------------------
    1        0.665   0.406   8.733   9.804
    2        0.662   0.404   8.737   9.804
    3        0.662   0.404   8.737   9.804
    4        0.665   0.406   8.733   9.804
    5        0.664   0.399   8.736   9.799
    6        0.667   0.404   8.734   9.805
    7        0.664   0.399   8.736   9.799
    8        0.666   0.406   8.737   9.808
    9        0.302   6.206   8.864  15.372
   10        0.300   6.203   8.865  15.368
   11        0.302   6.206   8.864  15.372
   12        0.300   6.206   8.864  15.370
   13        0.298   6.137   8.884  15.318
   14        0.293   6.192   8.877  15.362
   15        0.293   6.192   8.877  15.362
   16        0.289   6.194   8.871  15.354
   17        0.289   6.194   8.871  15.354
   18        0.283   6.176   8.891  15.350
   19        0.282   6.174   8.890  15.346
   20        0.289   6.187   8.883  15.359
   21        0.287   6.184   8.885  15.356
   22        0.289   6.187   8.883  15.359
   23        0.283   6.174   8.891  15.348
   24        0.298   6.258   8.824  15.380
   25        0.306   6.174   8.893  15.373
   26        0.307   6.173   8.887  15.367
   27        0.306   6.174   8.893  15.373
   28        0.300   6.178   8.891  15.369
   29        0.307   6.172   8.887  15.366
   30        0.287   6.184   8.885  15.356
   31        0.282   6.174   8.890  15.346
   32        0.294   6.194   8.865  15.354
   33        0.294   6.194   8.865  15.353
   34        0.298   6.137   8.883  15.318
   35        0.298   6.137   8.884  15.318
   36        0.297   6.137   8.885  15.318
   37        0.297   6.137   8.885  15.319
   38        0.297   6.137   8.885  15.319
   39        0.298   6.137   8.882  15.318
   40        0.298   6.137   8.882  15.318
   41        0.297   6.137   8.885  15.319
   42        0.297   6.137   8.885  15.319
   43        0.298   6.138   8.882  15.318
   44        0.297   6.137   8.885  15.319
   45        0.297   6.137   8.886  15.319
   46        0.297   6.137   8.883  15.318
   47        0.297   6.137   8.883  15.318
   48        0.297   6.137   8.886  15.319
   49        0.292   6.190   8.866  15.349
   50        0.292   6.190   8.866  15.349
   51        0.293   6.191   8.866  15.350
   52        0.293   6.191   8.866  15.350
   53        0.293   6.190   8.866  15.349
   54        0.291   6.191   8.866  15.348
   55        0.296   6.193   8.866  15.355
   56        0.291   6.191   8.866  15.348
   57        0.295   6.192   8.868  15.356
   58        0.295   6.194   8.867  15.356
   59        0.295   6.194   8.867  15.356
   60        0.295   6.192   8.868  15.356
   61        0.294   6.194   8.865  15.353
   62        0.295   6.191   8.867  15.353
   63        0.307   6.172   8.887  15.366
   64        0.300   6.178   8.891  15.369
   65        0.966   1.534   0.000   2.500
   66        1.645   3.529   0.000   5.173
--------------------------------------------------
tot         24.463 354.065 566.990 945.519
 

 total amount of memory used by VASP MPI-rank0  2928787. kBytes
=======================================================================

   base                                    :      30000. kBytes
   nonlr-proj                              :      14626. kBytes
   fftplans                                :     123120. kBytes
   grid                                    :     278360. kBytes
   one-center                              :       1026. kBytes
   wavefun                                 :    2481655. kBytes
 
  
  
 General timing and accounting informations for this job:
 ========================================================
  
                  Total CPU time used (sec):      190.367
                            User time (sec):      185.516
                          System time (sec):        4.851
                         Elapsed time (sec):      192.975
  
                   Maximum memory used (kb):     4608720.
                   Average memory used (kb):          N/A
  
                          Minor page faults:      2683507
                          Major page faults:            0
                 Voluntary context switches:         9923
