50% Au CO adsorption                    
            1
    10.281333    0.000000    0.000000
     5.140666    8.903895    0.000000
     0.000000    0.000000   36.296005
   Au   Cu   C    O 
     8    56     1     1
Direct configuration=     1
   0.49449846  0.26143007  0.58963702
   0.99409491  0.26124247  0.58953935
   0.24466262  0.26124247  0.58953935
   0.74407147  0.26143007  0.58963702
   0.00756718  0.98525355  0.59049553
   0.25736996  0.98526007  0.59010050
   0.50717928  0.98525355  0.59049553
   0.75739293  0.98521414  0.58870186
   0.66659782  0.66569311  0.52540380
   0.41724687  0.66550626  0.52564531
   0.16770906  0.66569311  0.52540380
   0.91768332  0.66463336  0.52543841
   0.00000000  0.00000000  0.41326863
   0.66695541  0.41623224  0.52562548
   0.41681235  0.41623224  0.52562548
   0.16331513  0.41913961  0.52684813
   0.91754526  0.41913961  0.52684813
   0.66708718  0.16582565  0.52615084
   0.41700136  0.16538866  0.52667354
   0.91800978  0.91421283  0.52577787
   0.16765813  0.91486221  0.52619521
   0.66777739  0.91421283  0.52577787
   0.16723646  0.16552708  0.52662994
   0.99452059  0.51095882  0.58526199
   0.24903287  0.50891772  0.58141917
   0.49554259  0.50891482  0.58240494
   0.74204940  0.50891772  0.58141917
   0.00878096  0.73915287  0.58144655
   0.25718349  0.73854375  0.58265951
   0.41747966  0.91486221  0.52619521
   0.91760998  0.16538866  0.52667354
   0.83333333  0.83333333  0.47108954
   0.58333333  0.83333333  0.47108954
   0.25000000  0.00000000  0.41326863
   0.50000000  0.00000000  0.41326863
   0.75000000  0.00000000  0.41326863
   0.00000000  0.25000000  0.41326863
   0.25000000  0.25000000  0.41326863
   0.50000000  0.25000000  0.41326863
   0.75000000  0.25000000  0.41326863
   0.00000000  0.50000000  0.41326863
   0.25000000  0.50000000  0.41326863
   0.50000000  0.50000000  0.41326863
   0.75000000  0.50000000  0.41326863
   0.00000000  0.75000000  0.41326863
   0.25000000  0.75000000  0.41326863
   0.50000000  0.75000000  0.41326863
   0.75000000  0.75000000  0.41326863
   0.08333333  0.08333333  0.47108954
   0.33333333  0.08333333  0.47108954
   0.58333333  0.08333333  0.47108954
   0.83333333  0.08333333  0.47108954
   0.08333333  0.33333333  0.47108954
   0.33333333  0.33333333  0.47108954
   0.58333333  0.33333333  0.47108954
   0.83333333  0.33333333  0.47108954
   0.08333333  0.58333333  0.47108954
   0.33333333  0.58333333  0.47108954
   0.58333333  0.58333333  0.47108954
   0.83333333  0.58333333  0.47108954
   0.08333333  0.83333333  0.47108954
   0.33333333  0.83333333  0.47108954
   0.50427276  0.73854375  0.58265951
   0.75206617  0.73915287  0.58144655
   0.94410621  0.61178758  0.63047996
   0.92623826  0.64752348  0.66127299
