       N       E                     dE             d eps       ncg     rms          rms(c)
DAV:   1     0.307682603668E+04    0.30768E+04   -0.13232E+05  4228   0.148E+03
DAV:   2     0.315512186431E+03   -0.27613E+04   -0.25739E+04  4350   0.377E+02
DAV:   3    -0.646364587852E+02   -0.38015E+03   -0.33922E+03  4772   0.183E+02
DAV:   4    -0.933741724982E+02   -0.28738E+02   -0.28151E+02  6096   0.564E+01
DAV:   5    -0.938582877942E+02   -0.48412E+00   -0.48263E+00  5848   0.880E+00    0.379E+01
DAV:   6    -0.902843135109E+02    0.35740E+01   -0.17794E+02  5408   0.107E+02    0.224E+01
DAV:   7    -0.797813809526E+02    0.10503E+02   -0.49851E+01  5133   0.116E+02    0.143E+01
DAV:   8    -0.809133223835E+02   -0.11319E+01   -0.13212E+01  6472   0.370E+01    0.104E+01
DAV:   9    -0.807317221144E+02    0.18160E+00   -0.58115E+00  5272   0.542E+01    0.720E+00
DAV:  10    -0.803261885187E+02    0.40553E+00   -0.31134E+00  5960   0.334E+01    0.349E+00
DAV:  11    -0.801532817316E+02    0.17291E+00   -0.15069E+00  6240   0.198E+01    0.211E+00
DAV:  12    -0.801181893873E+02    0.35092E-01   -0.62492E-01  5840   0.941E+00    0.113E+00
DAV:  13    -0.801137249954E+02    0.44644E-02   -0.21555E-01  5368   0.563E+00    0.475E-01
DAV:  14    -0.801141875373E+02   -0.46254E-03   -0.55048E-02  5352   0.166E+00    0.189E-01
DAV:  15    -0.801142022613E+02   -0.14724E-04   -0.13639E-02  4544   0.114E+00    0.140E-01
DAV:  16    -0.801136436405E+02    0.55862E-03   -0.31912E-03  4712   0.794E-01    0.721E-02
DAV:  17    -0.801133405476E+02    0.30309E-03   -0.11902E-03  6003   0.333E-01    0.621E-02
DAV:  18    -0.801133304127E+02    0.10135E-04   -0.42409E-04  5167   0.257E-01    0.386E-02
DAV:  19    -0.801134900788E+02   -0.15967E-03   -0.29833E-04  5188   0.236E-01    0.247E-02
DAV:  20    -0.801137534030E+02   -0.26332E-03   -0.11029E-04  5774   0.912E-02    0.173E-02
DAV:  21    -0.801140057311E+02   -0.25233E-03   -0.65212E-05  5194   0.109E-01    0.160E-02
DAV:  22    -0.801142230419E+02   -0.21731E-03   -0.33262E-05  5755   0.755E-02    0.856E-03
DAV:  23    -0.801144354796E+02   -0.21244E-03   -0.27618E-05  5354   0.424E-02    0.978E-03
DAV:  24    -0.801145437519E+02   -0.10827E-03   -0.77785E-06  4207   0.359E-02    0.616E-03
DAV:  25    -0.801146539337E+02   -0.11018E-03   -0.10738E-05  4585   0.236E-02    0.368E-03
DAV:  26    -0.801147221279E+02   -0.68194E-04   -0.43841E-06  3436   0.188E-02    0.329E-03
DAV:  27    -0.801147688752E+02   -0.46747E-04   -0.14714E-06  2639   0.119E-02    0.223E-03
DAV:  28    -0.801148006708E+02   -0.31796E-04   -0.11571E-06  2678   0.110E-02    0.168E-03
DAV:  29    -0.801148390494E+02   -0.38379E-04   -0.12901E-06  2632   0.949E-03    0.161E-03
DAV:  30    -0.801148483598E+02   -0.93104E-05   -0.57604E-07  2781   0.605E-03    0.123E-03
DAV:  31    -0.801148604617E+02   -0.12102E-04   -0.41530E-07  2559   0.517E-03    0.606E-04
DAV:  32    -0.801148675946E+02   -0.71329E-05   -0.23983E-07  2632   0.341E-03    0.687E-04
DAV:  33    -0.801148698255E+02   -0.22309E-05   -0.11735E-07  2556   0.269E-03    0.490E-04
DAV:  34    -0.801148709479E+02   -0.11224E-05   -0.53559E-08  2497   0.182E-03    0.287E-04
DAV:  35    -0.801148715867E+02   -0.63883E-06   -0.33416E-08  2459   0.119E-03
   1 F= -.80114872E+02 E0= -.80070208E+02  d E =-.801149E+02
       N       E                     dE             d eps       ncg     rms          rms(c)
DAV:   1    -0.802370737249E+02   -0.12220E+00   -0.20938E+02  4245   0.309E+01    0.158E+00
DAV:   2    -0.806950796617E+02   -0.45801E+00   -0.48410E+00  6456   0.124E+01    0.176E+00
DAV:   3    -0.806671931170E+02    0.27887E-01   -0.15774E-01  5381   0.691E+00    0.967E-01
DAV:   4    -0.806699172211E+02   -0.27241E-02   -0.47082E-02  6226   0.473E+00    0.781E-01
DAV:   5    -0.806685928067E+02    0.13244E-02   -0.53139E-02  5449   0.653E+00    0.655E-01
DAV:   6    -0.806600082798E+02    0.85845E-02   -0.30848E-02  6840   0.389E+00    0.214E-01
DAV:   7    -0.806604480184E+02   -0.43974E-03   -0.12751E-02  6450   0.124E+00    0.135E-01
DAV:   8    -0.806603371126E+02    0.11091E-03   -0.40044E-03  5095   0.684E-01    0.921E-02
DAV:   9    -0.806602980386E+02    0.39074E-04   -0.13151E-03  5122   0.457E-01    0.492E-02
DAV:  10    -0.806602790291E+02    0.19009E-04   -0.28192E-04  6296   0.216E-01    0.199E-02
DAV:  11    -0.806602831072E+02   -0.40781E-05   -0.10164E-04  5552   0.161E-01    0.183E-02
DAV:  12    -0.806602810181E+02    0.20891E-05   -0.41179E-05  4520   0.955E-02    0.508E-03
DAV:  13    -0.806602822707E+02   -0.12526E-05   -0.74350E-06  3968   0.301E-02    0.395E-03
DAV:  14    -0.806602830180E+02   -0.74733E-06   -0.29338E-06  3368   0.209E-02
   2 F= -.80660283E+02 E0= -.80617494E+02  d E =-.545411E+00
       N       E                     dE             d eps       ncg     rms          rms(c)
DAV:   1    -0.773906115576E+02    0.32697E+01   -0.13801E+03  4363   0.873E+01    0.472E+00
DAV:   2    -0.813535991704E+02   -0.39630E+01   -0.41153E+01  6464   0.370E+01    0.492E+00
DAV:   3    -0.811515795954E+02    0.20202E+00   -0.13638E+00  5408   0.231E+01    0.268E+00
DAV:   4    -0.811623230922E+02   -0.10743E-01   -0.32396E-01  5645   0.103E+01    0.229E+00
DAV:   5    -0.811732908689E+02   -0.10968E-01   -0.20553E-01  5285   0.112E+01    0.207E+00
DAV:   6    -0.811257023336E+02    0.47589E-01   -0.13338E-01  5778   0.706E+00    0.105E+00
DAV:   7    -0.811251665538E+02    0.53578E-03   -0.99879E-02  6117   0.269E+00    0.291E-01
DAV:   8    -0.811268265311E+02   -0.16600E-02   -0.26065E-02  5184   0.181E+00    0.240E-01
DAV:   9    -0.811267426261E+02    0.83905E-04   -0.36446E-03  4696   0.799E-01    0.184E-01
DAV:  10    -0.811265847450E+02    0.15788E-03   -0.22670E-03  5560   0.758E-01    0.826E-02
DAV:  11    -0.811265454132E+02    0.39332E-04   -0.73097E-04  5984   0.448E-01    0.602E-02
DAV:  12    -0.811265203333E+02    0.25080E-04   -0.54492E-04  5221   0.359E-01    0.223E-02
DAV:  13    -0.811265255500E+02   -0.52167E-05   -0.97820E-05  5448   0.110E-01    0.172E-02
DAV:  14    -0.811265306552E+02   -0.51052E-05   -0.31448E-05  4450   0.663E-02    0.887E-03
DAV:  15    -0.811265356110E+02   -0.49558E-05   -0.69278E-06  3842   0.428E-02    0.564E-03
DAV:  16    -0.811265417709E+02   -0.61599E-05   -0.36215E-06  3554   0.272E-02    0.160E-03
DAV:  17    -0.811265449856E+02   -0.32147E-05   -0.79569E-07  2709   0.105E-02    0.150E-03
DAV:  18    -0.811265469885E+02   -0.20029E-05   -0.45480E-07  2530   0.703E-03    0.815E-04
DAV:  19    -0.811265506683E+02   -0.36798E-05   -0.35565E-07  2594   0.444E-03    0.686E-04
DAV:  20    -0.811265527044E+02   -0.20362E-05   -0.23322E-07  2661   0.419E-03    0.485E-04
DAV:  21    -0.811265542177E+02   -0.15133E-05   -0.13458E-07  2530   0.255E-03    0.389E-04
DAV:  22    -0.811265557176E+02   -0.14998E-05   -0.12286E-07  2613   0.238E-03    0.280E-04
DAV:  23    -0.811265573350E+02   -0.16174E-05   -0.14130E-07  2578   0.206E-03    0.352E-04
DAV:  24    -0.811265576601E+02   -0.32509E-06   -0.62514E-08  2613   0.152E-03
   3 F= -.81126558E+02 E0= -.81090284E+02  d E =-.101169E+01
       N       E                     dE             d eps       ncg     rms          rms(c)
DAV:   1    -0.808309591640E+02    0.29560E+00   -0.27163E+02  4256   0.355E+01    0.149E+00
DAV:   2    -0.814115121437E+02   -0.58055E+00   -0.61420E+00  6437   0.129E+01    0.174E+00
DAV:   3    -0.813825158169E+02    0.28996E-01   -0.17415E-01  5376   0.730E+00    0.893E-01
DAV:   4    -0.813805667887E+02    0.19490E-02   -0.43613E-02  6314   0.436E+00    0.793E-01
DAV:   5    -0.813754104316E+02    0.51564E-02   -0.29146E-02  6431   0.380E+00    0.549E-01
DAV:   6    -0.813720754936E+02    0.33349E-02   -0.25255E-02  6700   0.237E+00    0.252E-01
DAV:   7    -0.813721215219E+02   -0.46028E-04   -0.10440E-02  5376   0.153E+00    0.104E-01
DAV:   8    -0.813722182706E+02   -0.96749E-04   -0.40639E-03  5004   0.718E-01    0.879E-02
DAV:   9    -0.813721517834E+02    0.66487E-04   -0.81476E-04  5288   0.393E-01    0.456E-02
DAV:  10    -0.813721334570E+02    0.18326E-04   -0.27099E-04  5418   0.253E-01    0.185E-02
DAV:  11    -0.813721373884E+02   -0.39315E-05   -0.72055E-05  5845   0.903E-02    0.120E-02
DAV:  12    -0.813721388976E+02   -0.15092E-05   -0.23533E-05  4236   0.634E-02    0.719E-03
DAV:  13    -0.813721405331E+02   -0.16355E-05   -0.82356E-06  3874   0.432E-02    0.380E-03
DAV:  14    -0.813721428682E+02   -0.23351E-05   -0.15818E-06  2620   0.152E-02    0.149E-03
DAV:  15    -0.813721441019E+02   -0.12337E-05   -0.79978E-07  2656   0.109E-02    0.131E-03
DAV:  16    -0.813721451100E+02   -0.10082E-05   -0.52409E-07  2492   0.715E-03    0.758E-04
DAV:  17    -0.813721472719E+02   -0.21619E-05   -0.40927E-07  2591   0.432E-03    0.607E-04
DAV:  18    -0.813721478350E+02   -0.56304E-06   -0.16736E-07  2616   0.301E-03
   4 F= -.81372148E+02 E0= -.81338216E+02  d E =-.245590E+00
       N       E                     dE             d eps       ncg     rms          rms(c)
DAV:   1    -0.813453394983E+02    0.26808E-01   -0.31285E+01  4245   0.117E+01    0.428E-01
DAV:   2    -0.813931595203E+02   -0.47820E-01   -0.50783E-01  6432   0.394E+00    0.525E-01
DAV:   3    -0.813905484648E+02    0.26111E-02   -0.19973E-02  5192   0.227E+00    0.251E-01
DAV:   4    -0.813903383362E+02    0.21013E-03   -0.43630E-03  6300   0.133E+00    0.218E-01
DAV:   5    -0.813898599467E+02    0.47839E-03   -0.29787E-03  6008   0.124E+00    0.142E-01
DAV:   6    -0.813895923992E+02    0.26755E-03   -0.23383E-03  6347   0.827E-01    0.729E-02
DAV:   7    -0.813896062885E+02   -0.13889E-04   -0.10539E-03  5501   0.461E-01    0.337E-02
DAV:   8    -0.813896031816E+02    0.31069E-05   -0.33408E-04  5004   0.222E-01    0.313E-02
DAV:   9    -0.813895946152E+02    0.85664E-05   -0.10933E-04  5344   0.134E-01    0.173E-02
DAV:  10    -0.813895912554E+02    0.33598E-05   -0.32410E-05  5076   0.737E-02    0.483E-03
DAV:  11    -0.813895921502E+02   -0.89477E-06   -0.73446E-06  4253   0.218E-02
   5 F= -.81389592E+02 E0= -.81356460E+02  d E =-.263034E+00
       N       E                     dE             d eps       ncg     rms          rms(c)
DAV:   1    -0.813418648377E+02    0.47726E-01   -0.72712E+01  4239   0.179E+01    0.641E-01
DAV:   2    -0.814998738109E+02   -0.15801E+00   -0.16292E+00  6408   0.756E+00    0.932E-01
DAV:   3    -0.814907227890E+02    0.91510E-02   -0.56742E-02  5130   0.416E+00    0.426E-01
DAV:   4    -0.814902855849E+02    0.43720E-03   -0.11746E-02  5943   0.183E+00    0.385E-01
DAV:   5    -0.814891697645E+02    0.11158E-02   -0.61006E-03  5401   0.148E+00    0.291E-01
DAV:   6    -0.814881056895E+02    0.10641E-02   -0.45627E-03  5315   0.108E+00    0.176E-01
DAV:   7    -0.814879002018E+02    0.20549E-03   -0.38340E-03  6216   0.617E-01    0.476E-02
DAV:   8    -0.814879341641E+02   -0.33962E-04   -0.78856E-04  4927   0.427E-01    0.431E-02
DAV:   9    -0.814879260561E+02    0.81080E-05   -0.24063E-04  5224   0.224E-01    0.210E-02
DAV:  10    -0.814879263439E+02   -0.28784E-06   -0.81867E-05  5263   0.114E-01    0.103E-02
DAV:  11    -0.814879282854E+02   -0.19415E-05   -0.19579E-05  4965   0.585E-02    0.771E-03
DAV:  12    -0.814879280971E+02    0.18830E-06   -0.80281E-06  3912   0.462E-02
   6 F= -.81487928E+02 E0= -.81454397E+02  d E =-.983359E-01
       N       E                     dE             d eps       ncg     rms          rms(c)
DAV:   1    -0.812937621054E+02    0.19417E+00   -0.11185E+02  4239   0.223E+01    0.833E-01
DAV:   2    -0.815493572142E+02   -0.25560E+00   -0.26254E+00  6448   0.952E+00    0.113E+00
DAV:   3    -0.815352031962E+02    0.14154E-01   -0.85959E-02  5157   0.540E+00    0.508E-01
DAV:   4    -0.815346440800E+02    0.55912E-03   -0.18906E-02  5943   0.247E+00    0.466E-01
DAV:   5    -0.815329170419E+02    0.17270E-02   -0.97819E-03  5545   0.182E+00    0.350E-01
DAV:   6    -0.815314107322E+02    0.15063E-02   -0.72440E-03  5332   0.125E+00    0.208E-01
DAV:   7    -0.815311122157E+02    0.29852E-03   -0.50204E-03  6246   0.778E-01    0.637E-02
DAV:   8    -0.815311623472E+02   -0.50132E-04   -0.12091E-03  5048   0.516E-01    0.473E-02
DAV:   9    -0.815311590173E+02    0.33299E-05   -0.34383E-04  5072   0.270E-01    0.235E-02
DAV:  10    -0.815311624597E+02   -0.34424E-05   -0.11531E-04  5338   0.128E-01    0.127E-02
DAV:  11    -0.815311648703E+02   -0.24106E-05   -0.27191E-05  5173   0.759E-02    0.938E-03
DAV:  12    -0.815311644694E+02    0.40088E-06   -0.96027E-06  3954   0.495E-02
   7 F= -.81531164E+02 E0= -.81497200E+02  d E =-.141572E+00
       N       E                     dE             d eps       ncg     rms          rms(c)
DAV:   1    -0.815022873300E+02    0.28878E-01   -0.36814E+01  4237   0.126E+01    0.430E-01
DAV:   2    -0.815677873035E+02   -0.65500E-01   -0.68274E-01  6400   0.476E+00    0.665E-01
DAV:   3    -0.815637233980E+02    0.40639E-02   -0.27361E-02  5181   0.251E+00    0.329E-01
DAV:   4    -0.815633288524E+02    0.39455E-03   -0.48075E-03  5938   0.116E+00    0.285E-01
DAV:   5    -0.815626921021E+02    0.63675E-03   -0.29232E-03  5572   0.108E+00    0.207E-01
DAV:   6    -0.815621646828E+02    0.52742E-03   -0.25716E-03  5611   0.891E-01    0.119E-01
DAV:   7    -0.815621469810E+02    0.17702E-04   -0.24217E-03  6071   0.538E-01    0.372E-02
DAV:   8    -0.815621679559E+02   -0.20975E-04   -0.51782E-04  4609   0.280E-01    0.431E-02
DAV:   9    -0.815621530630E+02    0.14893E-04   -0.18769E-04  5264   0.164E-01    0.233E-02
DAV:  10    -0.815621445624E+02    0.85006E-05   -0.45158E-05  5077   0.103E-01    0.888E-03
DAV:  11    -0.815621448512E+02   -0.28877E-06   -0.16713E-05  5736   0.287E-02    0.393E-03
DAV:  12    -0.815621451660E+02   -0.31479E-06   -0.39069E-06  3448   0.257E-02
   8 F= -.81562145E+02 E0= -.81528143E+02  d E =-.309807E-01
       N       E                     dE             d eps       ncg     rms          rms(c)
DAV:   1    -0.814805285495E+02    0.81616E-01   -0.53231E+01  4237   0.151E+01    0.528E-01
DAV:   2    -0.815804510174E+02   -0.99922E-01   -0.10408E+00  6408   0.593E+00    0.814E-01
DAV:   3    -0.815740626809E+02    0.63883E-02   -0.40240E-02  5205   0.317E+00    0.397E-01
DAV:   4    -0.815734763613E+02    0.58632E-03   -0.72049E-03  5909   0.138E+00    0.345E-01
DAV:   5    -0.815725884704E+02    0.88789E-03   -0.40814E-03  5599   0.120E+00    0.256E-01
DAV:   6    -0.815717960097E+02    0.79246E-03   -0.34405E-03  5538   0.999E-01    0.156E-01
DAV:   7    -0.815716858625E+02    0.11015E-03   -0.34158E-03  6124   0.631E-01    0.406E-02
DAV:   8    -0.815717342616E+02   -0.48399E-04   -0.75862E-04  4713   0.342E-01    0.493E-02
DAV:   9    -0.815717172842E+02    0.16977E-04   -0.25129E-04  5264   0.199E-01    0.278E-02
DAV:  10    -0.815717059593E+02    0.11325E-04   -0.63563E-05  5090   0.122E-01    0.103E-02
DAV:  11    -0.815717065654E+02   -0.60612E-06   -0.23871E-05  5928   0.342E-02    0.488E-03
DAV:  12    -0.815717070571E+02   -0.49174E-06   -0.54677E-06  3648   0.303E-02
   9 F= -.81571707E+02 E0= -.81537705E+02  d E =-.405426E-01
       N       E                     dE             d eps       ncg     rms          rms(c)
DAV:   1    -0.815212815913E+02    0.50425E-01   -0.44466E+01  4242   0.138E+01    0.492E-01
DAV:   2    -0.815986737447E+02   -0.77392E-01   -0.81117E-01  6426   0.543E+00    0.737E-01
DAV:   3    -0.815933370966E+02    0.53366E-02   -0.32136E-02  5312   0.289E+00    0.355E-01
DAV:   4    -0.815928542239E+02    0.48287E-03   -0.61324E-03  6141   0.128E+00    0.310E-01
DAV:   5    -0.815920491852E+02    0.80504E-03   -0.38221E-03  5314   0.125E+00    0.220E-01
DAV:   6    -0.815914306845E+02    0.61850E-03   -0.34316E-03  5839   0.934E-01    0.120E-01
DAV:   7    -0.815914439221E+02   -0.13238E-04   -0.26030E-03  6104   0.586E-01    0.447E-02
DAV:   8    -0.815914746464E+02   -0.30724E-04   -0.74764E-04  4960   0.343E-01    0.502E-02
DAV:   9    -0.815914544147E+02    0.20232E-04   -0.20854E-04  5336   0.191E-01    0.295E-02
DAV:  10    -0.815914407807E+02    0.13634E-04   -0.48901E-05  5309   0.102E-01    0.108E-02
DAV:  11    -0.815914410442E+02   -0.26351E-06   -0.22367E-05  6032   0.340E-02    0.439E-03
DAV:  12    -0.815914415148E+02   -0.47055E-06   -0.50803E-06  3549   0.268E-02
  10 F= -.81591442E+02 E0= -.81557747E+02  d E =-.197345E-01
       N       E                     dE             d eps       ncg     rms          rms(c)
DAV:   1    -0.815838935850E+02    0.75475E-02   -0.74871E+00  4245   0.562E+00    0.162E-01
DAV:   2    -0.815942239930E+02   -0.10330E-01   -0.10683E-01  6423   0.179E+00    0.235E-01
DAV:   3    -0.815938450508E+02    0.37894E-03   -0.42646E-03  5104   0.864E-01    0.122E-01
DAV:   4    -0.815937898979E+02    0.55153E-04   -0.66295E-04  5701   0.445E-01    0.107E-01
DAV:   5    -0.815937161326E+02    0.73765E-04   -0.46856E-04  5607   0.524E-01    0.793E-02
DAV:   6    -0.815936177818E+02    0.98351E-04   -0.51267E-04  6950   0.422E-01    0.361E-02
DAV:   7    -0.815936207380E+02   -0.29563E-05   -0.28892E-04  6136   0.207E-01    0.159E-02
DAV:   8    -0.815936228216E+02   -0.20835E-05   -0.71637E-05  4696   0.787E-02    0.160E-02
DAV:   9    -0.815936206842E+02    0.21374E-05   -0.21495E-05  4552   0.555E-02    0.913E-03
DAV:  10    -0.815936194526E+02    0.12316E-05   -0.75228E-06  4117   0.402E-02    0.313E-03
DAV:  11    -0.815936194306E+02    0.22002E-07   -0.19696E-06  2629   0.150E-02
  11 F= -.81593619E+02 E0= -.81560063E+02  d E =-.219124E-01
       N       E                     dE             d eps       ncg     rms          rms(c)
DAV:   1    -0.815852355543E+02    0.83839E-02   -0.11511E+01  4305   0.731E+00    0.249E-01
DAV:   2    -0.816049914520E+02   -0.19756E-01   -0.20730E-01  6448   0.277E+00    0.342E-01
DAV:   3    -0.816039134262E+02    0.10780E-02   -0.97426E-03  4917   0.160E+00    0.151E-01
DAV:   4    -0.816038662010E+02    0.47225E-04   -0.19602E-03  5589   0.623E-01    0.134E-01
DAV:   5    -0.816037891441E+02    0.77057E-04   -0.94124E-04  5012   0.662E-01    0.104E-01
DAV:   6    -0.816036097354E+02    0.17941E-03   -0.68341E-04  5873   0.477E-01    0.507E-02
DAV:   7    -0.816036217359E+02   -0.12000E-04   -0.60926E-04  6317   0.238E-01    0.236E-02
DAV:   8    -0.816036206027E+02    0.11332E-05   -0.83441E-05  5216   0.120E-01    0.190E-02
DAV:   9    -0.816036173246E+02    0.32781E-05   -0.29345E-05  4512   0.691E-02    0.101E-02
DAV:  10    -0.816036164133E+02    0.91130E-06   -0.10952E-05  5122   0.436E-02    0.355E-03
DAV:  11    -0.816036163384E+02    0.74913E-07   -0.33434E-06  3240   0.241E-02
  12 F= -.81603616E+02 E0= -.81570313E+02  d E =-.999691E-02
       N       E                     dE             d eps       ncg     rms          rms(c)
DAV:   1    -0.815975252466E+02    0.60912E-02   -0.53603E+00  4316   0.498E+00    0.154E-01
DAV:   2    -0.816061217227E+02   -0.85965E-02   -0.89355E-02  6445   0.174E+00    0.206E-01
DAV:   3    -0.816058082216E+02    0.31350E-03   -0.41345E-03  4968   0.983E-01    0.971E-02
DAV:   4    -0.816057846319E+02    0.23590E-04   -0.74753E-04  5512   0.396E-01    0.846E-02
DAV:   5    -0.816057648262E+02    0.19806E-04   -0.37543E-04  5169   0.448E-01    0.685E-02
DAV:   6    -0.816056800205E+02    0.84806E-04   -0.30996E-04  6366   0.337E-01    0.286E-02
DAV:   7    -0.816056869713E+02   -0.69508E-05   -0.22599E-04  6320   0.146E-01    0.144E-02
DAV:   8    -0.816056865844E+02    0.38685E-06   -0.29967E-05  4672   0.605E-02    0.109E-02
DAV:   9    -0.816056856778E+02    0.90658E-06   -0.97681E-06  3792   0.383E-02
  13 F= -.81605686E+02 E0= -.81572544E+02  d E =-.120662E-01
       N       E                     dE             d eps       ncg     rms          rms(c)
DAV:   1    -0.816024135602E+02    0.32730E-02   -0.40982E+00  4321   0.440E+00    0.120E-01
DAV:   2    -0.816092707514E+02   -0.68572E-02   -0.70430E-02  6472   0.141E+00    0.178E-01
DAV:   3    -0.816090180074E+02    0.25274E-03   -0.25373E-03  4978   0.705E-01    0.905E-02
DAV:   4    -0.816089807773E+02    0.37230E-04   -0.38901E-04  5765   0.313E-01    0.811E-02
DAV:   5    -0.816089364263E+02    0.44351E-04   -0.19693E-04  5190   0.313E-01    0.626E-02
DAV:   6    -0.816088734794E+02    0.62947E-04   -0.24752E-04  6891   0.303E-01    0.376E-02
DAV:   7    -0.816088582423E+02    0.15237E-04   -0.20134E-04  6621   0.175E-01    0.993E-03
DAV:   8    -0.816088608401E+02   -0.25977E-05   -0.42386E-05  4904   0.674E-02    0.102E-02
DAV:   9    -0.816088607011E+02    0.13894E-06   -0.12902E-05  3888   0.376E-02    0.693E-03
DAV:  10    -0.816088600057E+02    0.69541E-06   -0.26192E-06  2535   0.213E-02
  14 F= -.81608860E+02 E0= -.81575746E+02  d E =-.317433E-02
       N       E                     dE             d eps       ncg     rms          rms(c)
DAV:   1    -0.816032507006E+02    0.56100E-02   -0.42950E+00  4326   0.450E+00    0.122E-01
DAV:   2    -0.816104159692E+02   -0.71653E-02   -0.73522E-02  6464   0.144E+00    0.180E-01
DAV:   3    -0.816101575785E+02    0.25839E-03   -0.26380E-03  4962   0.715E-01    0.928E-02
DAV:   4    -0.816101176761E+02    0.39902E-04   -0.40382E-04  5717   0.316E-01    0.825E-02
DAV:   5    -0.816100723649E+02    0.45311E-04   -0.20392E-04  5201   0.317E-01    0.645E-02
DAV:   6    -0.816100069733E+02    0.65392E-04   -0.25528E-04  6691   0.322E-01    0.397E-02
DAV:   7    -0.816099887217E+02    0.18252E-04   -0.22441E-04  6684   0.185E-01    0.106E-02
DAV:   8    -0.816099916889E+02   -0.29672E-05   -0.48764E-05  5098   0.725E-02    0.104E-02
DAV:   9    -0.816099915311E+02    0.15786E-06   -0.14260E-05  3880   0.387E-02    0.715E-03
DAV:  10    -0.816099907227E+02    0.80833E-06   -0.30161E-06  2682   0.206E-02
  15 F= -.81609991E+02 E0= -.81576900E+02  d E =-.430504E-02
       N       E                     dE             d eps       ncg     rms          rms(c)
DAV:   1    -0.816038299861E+02    0.61615E-02   -0.52604E+00  4302   0.490E+00    0.132E-01
DAV:   2    -0.816129909108E+02   -0.91609E-02   -0.93784E-02  6386   0.158E+00    0.191E-01
DAV:   3    -0.816127047024E+02    0.28621E-03   -0.29905E-03  5122   0.705E-01    0.101E-01
DAV:   4    -0.816126502760E+02    0.54426E-04   -0.42999E-04  5690   0.327E-01    0.892E-02
DAV:   5    -0.816125968281E+02    0.53448E-04   -0.23785E-04  5379   0.369E-01    0.716E-02
DAV:   6    -0.816125081278E+02    0.88700E-04   -0.31839E-04  6977   0.368E-01    0.432E-02
DAV:   7    -0.816124829364E+02    0.25191E-04   -0.27389E-04  6852   0.212E-01    0.127E-02
DAV:   8    -0.816124874369E+02   -0.45005E-05   -0.64680E-05  5368   0.788E-02    0.119E-02
DAV:   9    -0.816124873681E+02    0.68801E-07   -0.18288E-05  3909   0.460E-02    0.819E-03
DAV:  10    -0.816124862565E+02    0.11116E-05   -0.40526E-06  3234   0.246E-02    0.222E-03
DAV:  11    -0.816124861954E+02    0.61118E-07   -0.20988E-06  2605   0.146E-02
  16 F= -.81612486E+02 E0= -.81579403E+02  d E =-.249547E-02
       N       E                     dE             d eps       ncg     rms          rms(c)
DAV:   1    -0.816095158487E+02    0.29704E-02   -0.21728E+00  4302   0.315E+00    0.767E-02
DAV:   2    -0.816131196110E+02   -0.36038E-02   -0.36666E-02  6369   0.952E-01    0.104E-01
DAV:   3    -0.816130527172E+02    0.66894E-04   -0.10273E-03  5110   0.388E-01    0.598E-02
DAV:   4    -0.816130308767E+02    0.21841E-04   -0.13515E-04  5452   0.187E-01    0.532E-02
DAV:   5    -0.816130165443E+02    0.14332E-04   -0.91996E-05  5507   0.247E-01    0.443E-02
DAV:   6    -0.816129760701E+02    0.40474E-04   -0.14028E-04  7323   0.260E-01    0.237E-02
DAV:   7    -0.816129685705E+02    0.74996E-05   -0.87077E-05  6905   0.125E-01    0.851E-03
DAV:   8    -0.816129698685E+02   -0.12980E-05   -0.20991E-05  4557   0.392E-02    0.687E-03
DAV:   9    -0.816129697880E+02    0.80559E-07   -0.48307E-06  3530   0.225E-02
  17 F= -.81612970E+02 E0= -.81579888E+02  d E =-.297907E-02
       N       E                     dE             d eps       ncg     rms          rms(c)
DAV:   1    -0.816078479205E+02    0.51219E-02   -0.45137E+00  4291   0.449E+00    0.119E-01
DAV:   2    -0.816154757848E+02   -0.76279E-02   -0.78045E-02  6388   0.142E+00    0.167E-01
DAV:   3    -0.816152629755E+02    0.21281E-03   -0.23206E-03  5240   0.614E-01    0.888E-02
DAV:   4    -0.816152212467E+02    0.41729E-04   -0.33666E-04  5695   0.312E-01    0.795E-02
DAV:   5    -0.816151785564E+02    0.42690E-04   -0.19348E-04  5533   0.345E-01    0.630E-02
DAV:   6    -0.816151016503E+02    0.76906E-04   -0.30712E-04  7340   0.299E-01    0.322E-02
DAV:   7    -0.816150917417E+02    0.99086E-05   -0.15659E-04  6141   0.172E-01    0.113E-02
DAV:   8    -0.816150948489E+02   -0.31072E-05   -0.48116E-05  4744   0.621E-02    0.109E-02
DAV:   9    -0.816150943838E+02    0.46508E-06   -0.10937E-05  3768   0.374E-02    0.742E-03
DAV:  10    -0.816150934438E+02    0.94000E-06   -0.32739E-06  2880   0.261E-02
  18 F= -.81615093E+02 E0= -.81582065E+02  d E =-.212366E-02
       N       E                     dE             d eps       ncg     rms          rms(c)
DAV:   1    -0.816127491219E+02    0.23453E-02   -0.19574E+00  4291   0.296E+00    0.714E-02
DAV:   2    -0.816159190182E+02   -0.31699E-02   -0.32224E-02  6396   0.877E-01    0.921E-02
DAV:   3    -0.816158634566E+02    0.55562E-04   -0.78529E-04  5224   0.327E-01    0.549E-02
DAV:   4    -0.816158448802E+02    0.18576E-04   -0.10764E-04  5274   0.172E-01    0.487E-02
DAV:   5    -0.816158349417E+02    0.99384E-05   -0.81704E-05  5723   0.239E-01    0.409E-02
DAV:   6    -0.816157991670E+02    0.35775E-04   -0.13772E-04  7619   0.239E-01    0.202E-02
DAV:   7    -0.816157937167E+02    0.54502E-05   -0.59011E-05  6451   0.114E-01    0.804E-03
DAV:   8    -0.816157946749E+02   -0.95816E-06   -0.17013E-05  4277   0.337E-02    0.648E-03
DAV:   9    -0.816157945485E+02    0.12637E-06   -0.37475E-06  3426   0.204E-02
  19 F= -.81615795E+02 E0= -.81582784E+02  d E =-.282476E-02
       N       E                     dE             d eps       ncg     rms          rms(c)
DAV:   1    -0.816027137018E+02    0.13081E-01   -0.78284E+00  4288   0.592E+00    0.168E-01
DAV:   2    -0.816163770701E+02   -0.13663E-01   -0.14049E-01  6412   0.197E+00    0.244E-01
DAV:   3    -0.816158751566E+02    0.50191E-03   -0.46061E-03  5232   0.924E-01    0.123E-01
DAV:   4    -0.816157986118E+02    0.76545E-04   -0.70332E-04  5810   0.444E-01    0.110E-01
DAV:   5    -0.816157022949E+02    0.96317E-04   -0.35616E-04  5397   0.429E-01    0.845E-02
DAV:   6    -0.816155755118E+02    0.12678E-03   -0.53609E-04  7154   0.362E-01    0.456E-02
DAV:   7    -0.816155552614E+02    0.20250E-04   -0.29871E-04  5808   0.240E-01    0.147E-02
DAV:   8    -0.816155623760E+02   -0.71145E-05   -0.10156E-04  4989   0.989E-02    0.154E-02
DAV:   9    -0.816155615709E+02    0.80507E-06   -0.23590E-05  4247   0.541E-02    0.105E-02
DAV:  10    -0.816155598235E+02    0.17474E-05   -0.59321E-06  3941   0.357E-02    0.410E-03
DAV:  11    -0.816155596366E+02    0.18690E-06   -0.36136E-06  3309   0.159E-02
  20 F= -.81615560E+02 E0= -.81582618E+02  d E =-.258985E-02
       N       E                     dE             d eps       ncg     rms          rms(c)
DAV:   1    -0.816110381819E+02    0.45216E-02   -0.31834E+00  4280   0.377E+00    0.944E-02
DAV:   2    -0.816161979178E+02   -0.51597E-02   -0.52461E-02  6402   0.116E+00    0.126E-01
DAV:   3    -0.816161008663E+02    0.97052E-04   -0.16643E-03  5197   0.574E-01    0.711E-02
DAV:   4    -0.816160702435E+02    0.30623E-04   -0.23442E-04  5952   0.276E-01    0.635E-02
DAV:   5    -0.816160406423E+02    0.29601E-04   -0.12030E-04  6467   0.235E-01    0.486E-02
DAV:   6    -0.816159939344E+02    0.46708E-04   -0.18875E-04  7439   0.218E-01    0.250E-02
DAV:   7    -0.816159879412E+02    0.59932E-05   -0.77512E-05  6233   0.126E-01    0.100E-02
DAV:   8    -0.816159887755E+02   -0.83435E-06   -0.23182E-05  4442   0.510E-02    0.688E-03
DAV:   9    -0.816159886488E+02    0.12666E-06   -0.52467E-06  3552   0.259E-02
  21 F= -.81615989E+02 E0= -.81582998E+02  d E =-.301886E-02
       N       E                     dE             d eps       ncg     rms          rms(c)
DAV:   1    -0.816122398576E+02    0.37489E-02   -0.31868E+00  4266   0.371E+00    0.947E-02
DAV:   2    -0.816174015782E+02   -0.51617E-02   -0.52668E-02  6413   0.116E+00    0.125E-01
DAV:   3    -0.816173028126E+02    0.98766E-04   -0.15847E-03  5296   0.538E-01    0.676E-02
DAV:   4    -0.816172764668E+02    0.26346E-04   -0.22413E-04  5604   0.273E-01    0.607E-02
DAV:   5    -0.816172501004E+02    0.26366E-04   -0.11848E-04  6660   0.242E-01    0.465E-02
DAV:   6    -0.816172056978E+02    0.44403E-04   -0.17559E-04  7230   0.211E-01    0.238E-02
DAV:   7    -0.816171998274E+02    0.58704E-05   -0.71187E-05  5715   0.129E-01    0.879E-03
DAV:   8    -0.816172012957E+02   -0.14683E-05   -0.28029E-05  4376   0.549E-02    0.698E-03
DAV:   9    -0.816172012084E+02    0.87311E-07   -0.57480E-06  3624   0.258E-02
  22 F= -.81617201E+02 E0= -.81584272E+02  d E =-.121256E-02
       N       E                     dE             d eps       ncg     rms          rms(c)
DAV:   1    -0.816163377547E+02    0.86354E-03   -0.71095E-01  4269   0.175E+00    0.420E-02
DAV:   2    -0.816174600148E+02   -0.11223E-02   -0.11382E-02  6395   0.525E-01    0.518E-02
DAV:   3    -0.816174473836E+02    0.12631E-04   -0.31607E-04  5240   0.234E-01    0.303E-02
DAV:   4    -0.816174419260E+02    0.54576E-05   -0.41939E-05  5281   0.117E-01    0.268E-02
DAV:   5    -0.816174396921E+02    0.22340E-05   -0.27348E-05  5596   0.132E-01    0.223E-02
DAV:   6    -0.816174277075E+02    0.11985E-04   -0.44494E-05  7206   0.107E-01    0.821E-03
DAV:   7    -0.816174276632E+02    0.44296E-07   -0.12429E-05  5328   0.381E-02    0.465E-03
DAV:   8    -0.816174276086E+02    0.54541E-07   -0.31759E-06  3413   0.205E-02
  23 F= -.81617428E+02 E0= -.81584534E+02  d E =-.143896E-02
       N       E                     dE             d eps       ncg     rms          rms(c)
DAV:   1    -0.816173185750E+02    0.10909E-03   -0.90465E-02  4272   0.626E-01    0.148E-02
DAV:   2    -0.816174610801E+02   -0.14251E-03   -0.14389E-03  6396   0.183E-01    0.166E-02
DAV:   3    -0.816174599470E+02    0.11331E-05   -0.36669E-05  5095   0.812E-02    0.104E-02
DAV:   4    -0.816174592663E+02    0.68068E-06   -0.48582E-06  3697   0.386E-02
  24 F= -.81617459E+02 E0= -.81584579E+02  d E =-.147062E-02
       N       E                     dE             d eps       ncg     rms          rms(c)
DAV:   1    -0.816153949831E+02    0.20650E-02   -0.18710E+00  4269   0.285E+00    0.684E-02
DAV:   2    -0.816183310368E+02   -0.29361E-02   -0.29777E-02  6266   0.824E-01    0.845E-02
DAV:   3    -0.816182990421E+02    0.31995E-04   -0.86209E-04  5183   0.387E-01    0.550E-02
DAV:   4    -0.816182802715E+02    0.18771E-04   -0.12501E-04  5236   0.234E-01    0.462E-02
DAV:   5    -0.816182609554E+02    0.19316E-04   -0.79263E-05  6474   0.197E-01    0.370E-02
DAV:   6    -0.816182361870E+02    0.24768E-04   -0.11366E-04  7491   0.184E-01    0.183E-02
DAV:   7    -0.816182324379E+02    0.37491E-05   -0.40815E-05  6218   0.798E-02    0.840E-03
DAV:   8    -0.816182319989E+02    0.43894E-06   -0.81211E-06  3960   0.366E-02
  25 F= -.81618232E+02 E0= -.81585347E+02  d E =-.772733E-03
