Cu-Ag alloy CO adsorption (RPBE, matches
            1
    10.889444    0.000000    0.000000
     2.722361    4.715268    0.000000
     0.000000    0.000000   30.668396
   Cu   Ag   Cu   Ag   Cu   Ag   Cu   Ag   Cu   Ag   Cu   Ag   Cu   Ag   Cu   Ag
     3     1     2     2     2     2     2     2     3     1     2     2     3     1     2     2
Direct configuration=     1
   0.00000000  0.00000000  0.39128229
   0.25000000  0.00000000  0.39128229
   0.50000000  0.00000000  0.39128229
   0.75000000  0.00000000  0.39128229
   0.00000000  0.50000000  0.39128229
   0.25000000  0.50000000  0.39128229
   0.50000000  0.50000000  0.39128229
   0.75000000  0.50000000  0.39128229
   0.08333333  0.16666667  0.46376076
   0.33333333  0.16666667  0.46376076
   0.58333333  0.16666667  0.46376076
   0.83333333  0.16666667  0.46376076
   0.08333333  0.66666667  0.46376076
   0.33333333  0.66666667  0.46376076
   0.58333333  0.66666667  0.46376076
   0.83333333  0.66666667  0.46376076
   0.91666667  0.33333333  0.53623924
   0.16666667  0.33333333  0.53623924
   0.41666667  0.33333333  0.53623924
   0.66666667  0.33333333  0.53623924
   0.91666667  0.83333333  0.53623924
   0.16666667  0.83333333  0.53623924
   0.41666667  0.83333333  0.53623924
   0.66666667  0.83333333  0.53623924
   0.00000000  0.00000000  0.60871771
   0.25000000  0.00000000  0.60871771
   0.50000000  0.00000000  0.60871771
   0.75000000  0.00000000  0.60871771
   0.00000000  0.50000000  0.60871771
   0.25000000  0.50000000  0.60871771
   0.50000000  0.50000000  0.60871771
   0.75000000  0.50000000  0.60871771
Direct configuration=     2
   0.00000000  0.00000000  0.39128229
   0.25000000  0.00000000  0.39128229
   0.50000000  0.00000000  0.39128229
   0.75000000  0.00000000  0.39128229
   0.00000000  0.50000000  0.39128229
   0.25000000  0.50000000  0.39128229
   0.50000000  0.50000000  0.39128229
   0.75000000  0.50000000  0.39128229
   0.08333333  0.16666667  0.46376076
   0.33333333  0.16666667  0.46376076
   0.58333333  0.16666667  0.46376076
   0.83333333  0.16666667  0.46376076
   0.08333333  0.66666667  0.46376076
   0.33333333  0.66666667  0.46376076
   0.58333333  0.66666667  0.46376076
   0.83333333  0.66666667  0.46376076
   0.92155077  0.32845672  0.53653757
   0.16529952  0.33607680  0.53610059
   0.41227152  0.33637746  0.53613312
   0.66903843  0.32868438  0.53626207
   0.92156677  0.82842561  0.53654050
   0.16533014  0.83329260  0.53610155
   0.40950531  0.84273690  0.53616355
   0.66751130  0.83476331  0.53688140
   0.00278968  0.99723157  0.60795897
   0.24768401  0.00361024  0.60832908
   0.49675464  0.00467941  0.60878111
   0.75380686  0.99401873  0.61049919
   0.00282921  0.49714920  0.60795370
   0.24860323  0.50009358  0.60794890
   0.49461680  0.50306394  0.61048145
   0.75387792  0.49829359  0.61049248
Direct configuration=     3
   0.00000000  0.00000000  0.39128229
   0.25000000  0.00000000  0.39128229
   0.50000000  0.00000000  0.39128229
   0.75000000  0.00000000  0.39128229
   0.00000000  0.50000000  0.39128229
   0.25000000  0.50000000  0.39128229
   0.50000000  0.50000000  0.39128229
   0.75000000  0.50000000  0.39128229
   0.08333333  0.16666667  0.46376076
   0.33333333  0.16666667  0.46376076
   0.58333333  0.16666667  0.46376076
   0.83333333  0.16666667  0.46376076
   0.08333333  0.66666667  0.46376076
   0.33333333  0.66666667  0.46376076
   0.58333333  0.66666667  0.46376076
   0.83333333  0.66666667  0.46376076
   0.93364517  0.31638089  0.53727634
   0.16191410  0.34287038  0.53575727
   0.40138792  0.34391557  0.53587034
   0.67491157  0.31717229  0.53631862
   0.93370076  0.81627273  0.53728650
   0.16202054  0.83319173  0.53576058
   0.39177180  0.86602272  0.53597613
   0.66960284  0.83830432  0.53847156
   0.00969771  0.99037619  0.60608010
   0.24194897  0.01255017  0.60736673
   0.48871824  0.01626694  0.60893811
   0.76323369  0.97920747  0.61491061
   0.00983512  0.49008982  0.60606179
   0.24514444  0.50032530  0.60604510
   0.48128652  0.51065111  0.61484895
   0.76348074  0.49406806  0.61488728
Direct configuration=     4
   0.00000000  0.00000000  0.39128229
   0.25000000  0.00000000  0.39128229
   0.50000000  0.00000000  0.39128229
   0.75000000  0.00000000  0.39128229
   0.00000000  0.50000000  0.39128229
   0.25000000  0.50000000  0.39128229
   0.50000000  0.50000000  0.39128229
   0.75000000  0.50000000  0.39128229
   0.08333333  0.16666667  0.46376076
   0.33333333  0.16666667  0.46376076
   0.58333333  0.16666667  0.46376076
   0.83333333  0.16666667  0.46376076
   0.08333333  0.66666667  0.46376076
   0.33333333  0.66666667  0.46376076
   0.58333333  0.66666667  0.46376076
   0.83333333  0.66666667  0.46376076
   0.93735987  0.31286684  0.53752357
   0.15854762  0.34997284  0.53502497
   0.39793736  0.34959259  0.53570355
   0.67482210  0.32475980  0.53918480
   0.93741830  0.81233360  0.53754195
   0.16023893  0.83195533  0.53508291
   0.39328168  0.86114992  0.53614799
   0.66950558  0.83122153  0.54033905
   0.01331199  0.98665675  0.60525827
   0.23787844  0.01834230  0.60724888
   0.48546234  0.01871719  0.60879706
   0.76507932  0.98405561  0.61695567
   0.01398912  0.48601774  0.60522695
   0.24195071  0.50099632  0.60496079
   0.48051998  0.51297351  0.61612655
   0.76475968  0.48604666  0.61657057
Direct configuration=     5
   0.00000000  0.00000000  0.39128229
   0.25000000  0.00000000  0.39128229
   0.50000000  0.00000000  0.39128229
   0.75000000  0.00000000  0.39128229
   0.00000000  0.50000000  0.39128229
   0.25000000  0.50000000  0.39128229
   0.50000000  0.50000000  0.39128229
   0.75000000  0.50000000  0.39128229
   0.08333333  0.16666667  0.46376076
   0.33333333  0.16666667  0.46376076
   0.58333333  0.16666667  0.46376076
   0.83333333  0.16666667  0.46376076
   0.08333333  0.66666667  0.46376076
   0.33333333  0.66666667  0.46376076
   0.58333333  0.66666667  0.46376076
   0.83333333  0.66666667  0.46376076
   0.93862777  0.31166742  0.53760796
   0.15739858  0.35239704  0.53477502
   0.39675962  0.35153027  0.53564662
   0.67479157  0.32734957  0.54016308
   0.93868718  0.81098909  0.53762914
   0.15963083  0.83153333  0.53485160
   0.39379704  0.85948673  0.53620665
   0.66947238  0.82880403  0.54097646
   0.01454562  0.98538723  0.60497776
   0.23648908  0.02031927  0.60720865
   0.48435103  0.01955351  0.60874892
   0.76570927  0.98571037  0.61765369
   0.01540696  0.48462786  0.60494200
   0.24086063  0.50122536  0.60459070
   0.48025835  0.51376620  0.61656263
   0.76519620  0.48330880  0.61714511
Direct configuration=     6
   0.00000000  0.00000000  0.39128229
   0.25000000  0.00000000  0.39128229
   0.50000000  0.00000000  0.39128229
   0.75000000  0.00000000  0.39128229
   0.00000000  0.50000000  0.39128229
   0.25000000  0.50000000  0.39128229
   0.50000000  0.50000000  0.39128229
   0.75000000  0.50000000  0.39128229
   0.08333333  0.16666667  0.46376076
   0.33333333  0.16666667  0.46376076
   0.58333333  0.16666667  0.46376076
   0.83333333  0.16666667  0.46376076
   0.08333333  0.66666667  0.46376076
   0.33333333  0.66666667  0.46376076
   0.58333333  0.66666667  0.46376076
   0.83333333  0.66666667  0.46376076
   0.93738085  0.31283001  0.53749927
   0.15898446  0.35000739  0.53375202
   0.39715194  0.35262479  0.53550341
   0.67381023  0.32591441  0.54168445
   0.93503551  0.81496856  0.53756624
   0.16096170  0.83074794  0.53400039
   0.39756077  0.85300132  0.53656880
   0.66985834  0.83085157  0.54202414
   0.01505820  0.98459180  0.60493249
   0.23627689  0.02016711  0.60713975
   0.48280375  0.02029713  0.60865803
   0.76560493  0.98466057  0.61849273
   0.01410356  0.48612333  0.60496576
   0.24065533  0.50131331  0.60413815
   0.48159939  0.51450229  0.61680354
   0.76518702  0.48454127  0.61808588
Direct configuration=     7
   0.00000000  0.00000000  0.39128229
   0.25000000  0.00000000  0.39128229
   0.50000000  0.00000000  0.39128229
   0.75000000  0.00000000  0.39128229
   0.00000000  0.50000000  0.39128229
   0.25000000  0.50000000  0.39128229
   0.50000000  0.50000000  0.39128229
   0.75000000  0.50000000  0.39128229
   0.08333333  0.16666667  0.46376076
   0.33333333  0.16666667  0.46376076
   0.58333333  0.16666667  0.46376076
   0.83333333  0.16666667  0.46376076
   0.08333333  0.66666667  0.46376076
   0.33333333  0.66666667  0.46376076
   0.58333333  0.66666667  0.46376076
   0.83333333  0.66666667  0.46376076
   0.93583624  0.31427017  0.53736463
   0.16094896  0.34704722  0.53248479
   0.39763792  0.35398063  0.53532600
   0.67259461  0.32413662  0.54356904
   0.93051201  0.81989811  0.53748832
   0.16261032  0.82977505  0.53294595
   0.40222308  0.84496752  0.53701742
   0.67033644  0.83338795  0.54332194
   0.01569317  0.98360646  0.60487641
   0.23601404  0.01997863  0.60705441
   0.48088706  0.02121829  0.60854544
   0.76547567  0.98336012  0.61953207
   0.01248897  0.48797584  0.60499520
   0.24040101  0.50142226  0.60357755
   0.48326061  0.51541413  0.61710197
   0.76517565  0.48606800  0.61925126
Direct configuration=     8
   0.00000000  0.00000000  0.39128229
   0.25000000  0.00000000  0.39128229
   0.50000000  0.00000000  0.39128229
   0.75000000  0.00000000  0.39128229
   0.00000000  0.50000000  0.39128229
   0.25000000  0.50000000  0.39128229
   0.50000000  0.50000000  0.39128229
   0.75000000  0.50000000  0.39128229
   0.08333333  0.16666667  0.46376076
   0.33333333  0.16666667  0.46376076
   0.58333333  0.16666667  0.46376076
   0.83333333  0.16666667  0.46376076
   0.08333333  0.66666667  0.46376076
   0.33333333  0.66666667  0.46376076
   0.58333333  0.66666667  0.46376076
   0.83333333  0.66666667  0.46376076
   0.93487068  0.31504433  0.53729230
   0.16150713  0.34483621  0.53195716
   0.39905048  0.35070741  0.53520956
   0.67282296  0.32613729  0.54366408
   0.92968426  0.82091222  0.53748923
   0.16208643  0.83119995  0.53238498
   0.40401819  0.84408387  0.53716008
   0.67112407  0.83025662  0.54335925
   0.01496244  0.98388202  0.60463489
   0.23637393  0.01945757  0.60666111
   0.47915014  0.02425662  0.60878644
   0.76563874  0.98347490  0.62076838
   0.01156232  0.48904732  0.60469288
   0.24076831  0.50151721  0.60307602
   0.48364174  0.51500799  0.61760389
   0.76533659  0.48580010  0.62033410
Direct configuration=     9
   0.00000000  0.00000000  0.39128229
   0.25000000  0.00000000  0.39128229
   0.50000000  0.00000000  0.39128229
   0.75000000  0.00000000  0.39128229
   0.00000000  0.50000000  0.39128229
   0.25000000  0.50000000  0.39128229
   0.50000000  0.50000000  0.39128229
   0.75000000  0.50000000  0.39128229
   0.08333333  0.16666667  0.46376076
   0.33333333  0.16666667  0.46376076
   0.58333333  0.16666667  0.46376076
   0.83333333  0.16666667  0.46376076
   0.08333333  0.66666667  0.46376076
   0.33333333  0.66666667  0.46376076
   0.58333333  0.66666667  0.46376076
   0.83333333  0.66666667  0.46376076
   0.93371016  0.31597481  0.53720537
   0.16217800  0.34217874  0.53132298
   0.40074827  0.34677323  0.53506961
   0.67309743  0.32854196  0.54377830
   0.92868937  0.82213111  0.53749033
   0.16145676  0.83291258  0.53171074
   0.40617578  0.84302178  0.53733154
   0.67207075  0.82649298  0.54340409
   0.01408414  0.98421322  0.60434460
   0.23680649  0.01883129  0.60618840
   0.47706247  0.02790849  0.60907611
   0.76583475  0.98361285  0.62225433
   0.01044854  0.49033516  0.60432952
   0.24120977  0.50163134  0.60247322
   0.48409983  0.51451984  0.61820717
   0.76553002  0.48547811  0.62163560
Direct configuration=    10
   0.00000000  0.00000000  0.39128229
   0.25000000  0.00000000  0.39128229
   0.50000000  0.00000000  0.39128229
   0.75000000  0.00000000  0.39128229
   0.00000000  0.50000000  0.39128229
   0.25000000  0.50000000  0.39128229
   0.50000000  0.50000000  0.39128229
   0.75000000  0.50000000  0.39128229
   0.08333333  0.16666667  0.46376076
   0.33333333  0.16666667  0.46376076
   0.58333333  0.16666667  0.46376076
   0.83333333  0.16666667  0.46376076
   0.08333333  0.66666667  0.46376076
   0.33333333  0.66666667  0.46376076
   0.58333333  0.66666667  0.46376076
   0.83333333  0.66666667  0.46376076
   0.93325452  0.31646597  0.53712595
   0.16189102  0.34108970  0.53112649
   0.40227537  0.34404323  0.53495931
   0.67434112  0.32455004  0.54396840
   0.92930456  0.82123948  0.53746867
   0.16115829  0.83396670  0.53142997
   0.40614929  0.84243584  0.53736152
   0.67385722  0.82743467  0.54379158
   0.01324593  0.98469603  0.60397632
   0.23635021  0.01899012  0.60546914
   0.47580648  0.03120127  0.60948675
   0.76542196  0.98431361  0.62348099
   0.01020196  0.49066499  0.60382441
   0.24087060  0.50309446  0.60164025
   0.48436601  0.51395073  0.61886554
   0.76542766  0.48537770  0.62285287
Direct configuration=    11
   0.00000000  0.00000000  0.39128229
   0.25000000  0.00000000  0.39128229
   0.50000000  0.00000000  0.39128229
   0.75000000  0.00000000  0.39128229
   0.00000000  0.50000000  0.39128229
   0.25000000  0.50000000  0.39128229
   0.50000000  0.50000000  0.39128229
   0.75000000  0.50000000  0.39128229
   0.08333333  0.16666667  0.46376076
   0.33333333  0.16666667  0.46376076
   0.58333333  0.16666667  0.46376076
   0.83333333  0.16666667  0.46376076
   0.08333333  0.66666667  0.46376076
   0.33333333  0.66666667  0.46376076
   0.58333333  0.66666667  0.46376076
   0.83333333  0.66666667  0.46376076
   0.93306751  0.31666756  0.53709335
   0.16177323  0.34064272  0.53104584
   0.40290215  0.34292273  0.53491404
   0.67485157  0.32291162  0.54404642
   0.92955706  0.82087352  0.53745978
   0.16103578  0.83439935  0.53131473
   0.40613842  0.84219535  0.53737382
   0.67459045  0.82782117  0.54395062
   0.01290190  0.98489419  0.60382517
   0.23616293  0.01905531  0.60517393
   0.47529097  0.03255274  0.60965530
   0.76525254  0.98460122  0.62398445
   0.01010075  0.49080037  0.60361710
   0.24073139  0.50369497  0.60129836
   0.48447527  0.51371714  0.61913575
   0.76538564  0.48533649  0.62335248
Direct configuration=    12
   0.00000000  0.00000000  0.39128229
   0.25000000  0.00000000  0.39128229
   0.50000000  0.00000000  0.39128229
   0.75000000  0.00000000  0.39128229
   0.00000000  0.50000000  0.39128229
   0.25000000  0.50000000  0.39128229
   0.50000000  0.50000000  0.39128229
   0.75000000  0.50000000  0.39128229
   0.08333333  0.16666667  0.46376076
   0.33333333  0.16666667  0.46376076
   0.58333333  0.16666667  0.46376076
   0.83333333  0.16666667  0.46376076
   0.08333333  0.66666667  0.46376076
   0.33333333  0.66666667  0.46376076
   0.58333333  0.66666667  0.46376076
   0.83333333  0.66666667  0.46376076
   0.93334105  0.31639569  0.53701089
   0.16129481  0.34168051  0.53125502
   0.40301781  0.34342716  0.53490654
   0.67559973  0.32276628  0.54441205
   0.93119404  0.81889515  0.53727950
   0.16148232  0.83344645  0.53151373
   0.40605149  0.84074590  0.53733772
   0.67514963  0.82634390  0.54456488
   0.01247052  0.98559539  0.60372809
   0.23518998  0.01971670  0.60478940
   0.47568615  0.03206799  0.60978260
   0.76455256  0.98505089  0.62421661
   0.01018840  0.49064215  0.60347111
   0.23999324  0.50541828  0.60090923
   0.48419749  0.51500997  0.61931029
   0.76488377  0.48615291  0.62352558
Direct configuration=    13
   0.00000000  0.00000000  0.39128229
   0.25000000  0.00000000  0.39128229
   0.50000000  0.00000000  0.39128229
   0.75000000  0.00000000  0.39128229
   0.00000000  0.50000000  0.39128229
   0.25000000  0.50000000  0.39128229
   0.50000000  0.50000000  0.39128229
   0.75000000  0.50000000  0.39128229
   0.08333333  0.16666667  0.46376076
   0.33333333  0.16666667  0.46376076
   0.58333333  0.16666667  0.46376076
   0.83333333  0.16666667  0.46376076
   0.08333333  0.66666667  0.46376076
   0.33333333  0.66666667  0.46376076
   0.58333333  0.66666667  0.46376076
   0.83333333  0.66666667  0.46376076
   0.93352771  0.31621017  0.53695462
   0.16096834  0.34238869  0.53139777
   0.40309674  0.34377138  0.53490142
   0.67611025  0.32266710  0.54466155
   0.93231110  0.81754513  0.53715648
   0.16178704  0.83279621  0.53164953
   0.40599218  0.83975681  0.53731308
   0.67553121  0.82533583  0.54498403
   0.01217615  0.98607387  0.60366185
   0.23452605  0.02016803  0.60452700
   0.47595582  0.03173720  0.60986947
   0.76407490  0.98535773  0.62437503
   0.01024822  0.49053419  0.60337149
   0.23948955  0.50659424  0.60064369
   0.48400794  0.51589218  0.61942939
   0.76454129  0.48671003  0.62364369
Direct configuration=    14
   0.00000000  0.00000000  0.39128229
   0.25000000  0.00000000  0.39128229
   0.50000000  0.00000000  0.39128229
   0.75000000  0.00000000  0.39128229
   0.00000000  0.50000000  0.39128229
   0.25000000  0.50000000  0.39128229
   0.50000000  0.50000000  0.39128229
   0.75000000  0.50000000  0.39128229
   0.08333333  0.16666667  0.46376076
   0.33333333  0.16666667  0.46376076
   0.58333333  0.16666667  0.46376076
   0.83333333  0.16666667  0.46376076
   0.08333333  0.66666667  0.46376076
   0.33333333  0.66666667  0.46376076
   0.58333333  0.66666667  0.46376076
   0.83333333  0.66666667  0.46376076
   0.93400365  0.31540988  0.53680962
   0.16163326  0.34158233  0.53146743
   0.40323461  0.34302606  0.53490359
   0.67668224  0.32129288  0.54485035
   0.93275702  0.81721451  0.53688770
   0.16222940  0.83240081  0.53171178
   0.40636463  0.83975657  0.53727236
   0.67556004  0.82571833  0.54521124
   0.01116795  0.98733787  0.60369657
   0.23410695  0.02061331  0.60438730
   0.47607096  0.03152324  0.60987556
   0.76359672  0.98616966  0.62446528
   0.00951980  0.49138220  0.60344277
   0.23942940  0.50714564  0.60060906
   0.48328860  0.51739294  0.61948412
   0.76425718  0.48682109  0.62375794
Direct configuration=    15
   0.00000000  0.00000000  0.39128229
   0.25000000  0.00000000  0.39128229
   0.50000000  0.00000000  0.39128229
   0.75000000  0.00000000  0.39128229
   0.00000000  0.50000000  0.39128229
   0.25000000  0.50000000  0.39128229
   0.50000000  0.50000000  0.39128229
   0.75000000  0.50000000  0.39128229
   0.08333333  0.16666667  0.46376076
   0.33333333  0.16666667  0.46376076
   0.58333333  0.16666667  0.46376076
   0.83333333  0.16666667  0.46376076
   0.08333333  0.66666667  0.46376076
   0.33333333  0.66666667  0.46376076
   0.58333333  0.66666667  0.46376076
   0.83333333  0.66666667  0.46376076
   0.93449089  0.31459059  0.53666116
   0.16231396  0.34075683  0.53153874
   0.40337576  0.34226305  0.53490581
   0.67726781  0.31988603  0.54504364
   0.93321353  0.81687605  0.53661255
   0.16268226  0.83199602  0.53177550
   0.40674593  0.83975633  0.53723068
   0.67558955  0.82610991  0.54544385
   0.01013582  0.98863187  0.60373212
   0.23367790  0.02106915  0.60424428
   0.47618883  0.03130419  0.60988180
   0.76310718  0.98700085  0.62455766
   0.00877410  0.49225034  0.60351574
   0.23936783  0.50771014  0.60057361
   0.48255218  0.51892933  0.61954014
   0.76396632  0.48693479  0.62387490
Direct configuration=    16
   0.00000000  0.00000000  0.39128229
   0.25000000  0.00000000  0.39128229
   0.50000000  0.00000000  0.39128229
   0.75000000  0.00000000  0.39128229
   0.00000000  0.50000000  0.39128229
   0.25000000  0.50000000  0.39128229
   0.50000000  0.50000000  0.39128229
   0.75000000  0.50000000  0.39128229
   0.08333333  0.16666667  0.46376076
   0.33333333  0.16666667  0.46376076
   0.58333333  0.16666667  0.46376076
   0.83333333  0.16666667  0.46376076
   0.08333333  0.66666667  0.46376076
   0.33333333  0.66666667  0.46376076
   0.58333333  0.66666667  0.46376076
   0.83333333  0.66666667  0.46376076
   0.93513219  0.31397733  0.53651267
   0.16289909  0.33996640  0.53156597
   0.40372686  0.34171407  0.53492495
   0.67770805  0.32011928  0.54512434
   0.93362267  0.81626112  0.53638871
   0.16316340  0.83171411  0.53177457
   0.40762004  0.83879577  0.53724727
   0.67582758  0.82472748  0.54538386
   0.00918848  0.98956719  0.60372151
   0.23302812  0.02200021  0.60416497
   0.47596591  0.03199908  0.60990589
   0.76247191  0.98744842  0.62476102
   0.00785031  0.49375218  0.60353440
   0.23897332  0.50834235  0.60069495
   0.48150878  0.52058112  0.61955067
   0.76346517  0.48791927  0.62409009
Direct configuration=    17
   0.00000000  0.00000000  0.39128229
   0.25000000  0.00000000  0.39128229
   0.50000000  0.00000000  0.39128229
   0.75000000  0.00000000  0.39128229
   0.00000000  0.50000000  0.39128229
   0.25000000  0.50000000  0.39128229
   0.50000000  0.50000000  0.39128229
   0.75000000  0.50000000  0.39128229
   0.08333333  0.16666667  0.46376076
   0.33333333  0.16666667  0.46376076
   0.58333333  0.16666667  0.46376076
   0.83333333  0.16666667  0.46376076
   0.08333333  0.66666667  0.46376076
   0.33333333  0.66666667  0.46376076
   0.58333333  0.66666667  0.46376076
   0.83333333  0.66666667  0.46376076
   0.93554429  0.31358325  0.53641725
   0.16327509  0.33945847  0.53158347
   0.40395248  0.34136130  0.53493724
   0.67799094  0.32026916  0.54517620
   0.93388558  0.81586597  0.53624488
   0.16347258  0.83153296  0.53177398
   0.40818175  0.83817852  0.53725792
   0.67598054  0.82383913  0.54534532
   0.00857972  0.99016822  0.60371469
   0.23261058  0.02259851  0.60411400
   0.47582266  0.03244561  0.60992136
   0.76206370  0.98773603  0.62489170
   0.00725669  0.49471725  0.60354639
   0.23871980  0.50874860  0.60077292
   0.48083829  0.52164256  0.61955744
   0.76314314  0.48855189  0.62422837
Direct configuration=    18
   0.00000000  0.00000000  0.39128229
   0.25000000  0.00000000  0.39128229
   0.50000000  0.00000000  0.39128229
   0.75000000  0.00000000  0.39128229
   0.00000000  0.50000000  0.39128229
   0.25000000  0.50000000  0.39128229
   0.50000000  0.50000000  0.39128229
   0.75000000  0.50000000  0.39128229
   0.08333333  0.16666667  0.46376076
   0.33333333  0.16666667  0.46376076
   0.58333333  0.16666667  0.46376076
   0.83333333  0.16666667  0.46376076
   0.08333333  0.66666667  0.46376076
   0.33333333  0.66666667  0.46376076
   0.58333333  0.66666667  0.46376076
   0.83333333  0.66666667  0.46376076
   0.93612567  0.31325055  0.53634894
   0.16362907  0.33908026  0.53159893
   0.40426294  0.34127319  0.53501148
   0.67838506  0.31906481  0.54520510
   0.93418935  0.81527961  0.53617310
   0.16387600  0.83124681  0.53176731
   0.40860151  0.83732438  0.53736783
   0.67655358  0.82350405  0.54520136
   0.00796230  0.99066027  0.60363223
   0.23186118  0.02380367  0.60403934
   0.47545465  0.03364869  0.60994544
   0.76114856  0.98871576  0.62509886
   0.00656519  0.49611612  0.60348105
   0.23803638  0.50945432  0.60089626
   0.48010500  0.52275806  0.61952846
   0.76250146  0.48923339  0.62447043
Direct configuration=    19
   0.00000000  0.00000000  0.39128229
   0.25000000  0.00000000  0.39128229
   0.50000000  0.00000000  0.39128229
   0.75000000  0.00000000  0.39128229
   0.00000000  0.50000000  0.39128229
   0.25000000  0.50000000  0.39128229
   0.50000000  0.50000000  0.39128229
   0.75000000  0.50000000  0.39128229
   0.08333333  0.16666667  0.46376076
   0.33333333  0.16666667  0.46376076
   0.58333333  0.16666667  0.46376076
   0.83333333  0.16666667  0.46376076
   0.08333333  0.66666667  0.46376076
   0.33333333  0.66666667  0.46376076
   0.58333333  0.66666667  0.46376076
   0.83333333  0.66666667  0.46376076
   0.93650851  0.31303148  0.53630397
   0.16386216  0.33883122  0.53160911
   0.40446737  0.34121517  0.53506037
   0.67864459  0.31827174  0.54522413
   0.93438937  0.81489349  0.53612583
   0.16414165  0.83105838  0.53176292
   0.40887792  0.83676193  0.53744020
   0.67693093  0.82328340  0.54510656
   0.00755574  0.99098428  0.60357792
   0.23136770  0.02459726  0.60399018
   0.47521231  0.03444091  0.60996129
   0.76054595  0.98936091  0.62523527
   0.00610984  0.49703727  0.60343802
   0.23758634  0.50991904  0.60097748
   0.47962214  0.52349262  0.61950938
   0.76207891  0.48968215  0.62462982
Direct configuration=    20
   0.00000000  0.00000000  0.39128229
   0.25000000  0.00000000  0.39128229
   0.50000000  0.00000000  0.39128229
   0.75000000  0.00000000  0.39128229
   0.00000000  0.50000000  0.39128229
   0.25000000  0.50000000  0.39128229
   0.50000000  0.50000000  0.39128229
   0.75000000  0.50000000  0.39128229
   0.08333333  0.16666667  0.46376076
   0.33333333  0.16666667  0.46376076
   0.58333333  0.16666667  0.46376076
   0.83333333  0.16666667  0.46376076
   0.08333333  0.66666667  0.46376076
   0.33333333  0.66666667  0.46376076
   0.58333333  0.66666667  0.46376076
   0.83333333  0.66666667  0.46376076
   0.93727418  0.31259332  0.53621401
   0.16432834  0.33833312  0.53162946
   0.40487624  0.34109913  0.53515814
   0.67916364  0.31668562  0.54526218
   0.93478943  0.81412126  0.53603130
   0.16467295  0.83068153  0.53175413
   0.40943075  0.83563702  0.53758495
   0.67768562  0.82284210  0.54491696
   0.00674260  0.99163230  0.60346932
   0.23038073  0.02618444  0.60389185
   0.47472764  0.03602535  0.60999300
   0.75934072  0.99065122  0.62550809
   0.00519913  0.49887957  0.60335195
   0.23668627  0.51084847  0.60113991
   0.47865641  0.52496173  0.61947122
   0.76123381  0.49057969  0.62494860
Direct configuration=    21
   0.00000000  0.00000000  0.39128229
   0.25000000  0.00000000  0.39128229
   0.50000000  0.00000000  0.39128229
   0.75000000  0.00000000  0.39128229
   0.00000000  0.50000000  0.39128229
   0.25000000  0.50000000  0.39128229
   0.50000000  0.50000000  0.39128229
   0.75000000  0.50000000  0.39128229
   0.08333333  0.16666667  0.46376076
   0.33333333  0.16666667  0.46376076
   0.58333333  0.16666667  0.46376076
   0.83333333  0.16666667  0.46376076
   0.08333333  0.66666667  0.46376076
   0.33333333  0.66666667  0.46376076
   0.58333333  0.66666667  0.46376076
   0.83333333  0.66666667  0.46376076
   0.93678608  0.31287263  0.53627136
   0.16403116  0.33865064  0.53161649
   0.40461560  0.34117310  0.53509581
   0.67883276  0.31769673  0.54523792
   0.93453441  0.81461354  0.53609156
   0.16433426  0.83092177  0.53175973
   0.40907834  0.83635412  0.53749268
   0.67720453  0.82312342  0.54503782
   0.00726095  0.99121920  0.60353855
   0.23100990  0.02517265  0.60395453
   0.47503660  0.03501531  0.60997279
   0.76010902  0.98982868  0.62533417
   0.00577968  0.49770515  0.60340682
   0.23726004  0.51025598  0.60103637
   0.47927204  0.52402521  0.61949555
   0.76177254  0.49000753  0.62474539
Direct configuration=    22
   0.00000000  0.00000000  0.39128229
   0.25000000  0.00000000  0.39128229
   0.50000000  0.00000000  0.39128229
   0.75000000  0.00000000  0.39128229
   0.00000000  0.50000000  0.39128229
   0.25000000  0.50000000  0.39128229
   0.50000000  0.50000000  0.39128229
   0.75000000  0.50000000  0.39128229
   0.08333333  0.16666667  0.46376076
   0.33333333  0.16666667  0.46376076
   0.58333333  0.16666667  0.46376076
   0.83333333  0.16666667  0.46376076
   0.08333333  0.66666667  0.46376076
   0.33333333  0.66666667  0.46376076
   0.58333333  0.66666667  0.46376076
   0.83333333  0.66666667  0.46376076
   0.93695240  0.31278111  0.53629520
   0.16426762  0.33878133  0.53159691
   0.40463860  0.34112848  0.53524058
   0.67917672  0.31748726  0.54532981
   0.93484475  0.81442853  0.53612307
   0.16441352  0.83058524  0.53176080
   0.40905065  0.83654248  0.53755804
   0.67773051  0.82208835  0.54510196
   0.00678692  0.99176523  0.60342670
   0.23032955  0.02635486  0.60388573
   0.47475231  0.03593393  0.60994113
   0.75901219  0.99129519  0.62548935
   0.00518636  0.49859919  0.60333867
   0.23661734  0.51092400  0.60104684
   0.47906554  0.52442293  0.61949564
   0.76090040  0.49056435  0.62485508
Direct configuration=    23
   0.00000000  0.00000000  0.39128229
   0.25000000  0.00000000  0.39128229
   0.50000000  0.00000000  0.39128229
   0.75000000  0.00000000  0.39128229
   0.00000000  0.50000000  0.39128229
   0.25000000  0.50000000  0.39128229
   0.50000000  0.50000000  0.39128229
   0.75000000  0.50000000  0.39128229
   0.08333333  0.16666667  0.46376076
   0.33333333  0.16666667  0.46376076
   0.58333333  0.16666667  0.46376076
   0.83333333  0.16666667  0.46376076
   0.08333333  0.66666667  0.46376076
   0.33333333  0.66666667  0.46376076
   0.58333333  0.66666667  0.46376076
   0.83333333  0.66666667  0.46376076
   0.93703098  0.31273786  0.53630646
   0.16437934  0.33884308  0.53158766
   0.40464948  0.34110740  0.53530898
   0.67933922  0.31738830  0.54537321
   0.93499137  0.81434112  0.53613796
   0.16445097  0.83042625  0.53176130
   0.40903757  0.83663147  0.53758892
   0.67797901  0.82159933  0.54513226
   0.00656296  0.99202321  0.60337386
   0.23000811  0.02691340  0.60385322
   0.47461800  0.03636793  0.60992617
   0.75849398  0.99198805  0.62556267
   0.00490604  0.49902159  0.60330647
   0.23631369  0.51123961  0.60105179
   0.47896798  0.52461083  0.61949568
   0.76048836  0.49082742  0.62490690
Direct configuration=    24
   0.00000000  0.00000000  0.39128229
   0.25000000  0.00000000  0.39128229
   0.50000000  0.00000000  0.39128229
   0.75000000  0.00000000  0.39128229
   0.00000000  0.50000000  0.39128229
   0.25000000  0.50000000  0.39128229
   0.50000000  0.50000000  0.39128229
   0.75000000  0.50000000  0.39128229
   0.08333333  0.16666667  0.46376076
   0.33333333  0.16666667  0.46376076
   0.58333333  0.16666667  0.46376076
   0.83333333  0.16666667  0.46376076
   0.08333333  0.66666667  0.46376076
   0.33333333  0.66666667  0.46376076
   0.58333333  0.66666667  0.46376076
   0.83333333  0.66666667  0.46376076
   0.93705901  0.31272244  0.53631048
   0.16441920  0.33886511  0.53158436
   0.40465335  0.34109988  0.53533338
   0.67939720  0.31735299  0.54538870
   0.93504367  0.81430994  0.53614327
   0.16446433  0.83036953  0.53176148
   0.40903290  0.83666322  0.53759994
   0.67806766  0.82142488  0.54514307
   0.00648306  0.99211524  0.60335501
   0.22989344  0.02711266  0.60384163