       N       E                     dE             d eps       ncg     rms          rms(c)
DAV:   1     0.503263362587E+04    0.50326E+04   -0.18095E+05  2850   0.168E+03
DAV:   2     0.938009861686E+03   -0.40946E+04   -0.39113E+04  2850   0.430E+02
DAV:   3     0.583262122690E+01   -0.93218E+03   -0.84117E+03  3977   0.233E+02
DAV:   4    -0.209227439795E+03   -0.21506E+03   -0.20605E+03  4620   0.110E+02
DAV:   5    -0.226644727923E+03   -0.17417E+02   -0.15870E+02  4484   0.346E+01    0.611E+01
DAV:   6    -0.254360263252E+03   -0.27716E+02   -0.48810E+02  3748   0.165E+02    0.514E+01
DAV:   7    -0.231208327741E+03    0.23152E+02   -0.28380E+02  3884   0.187E+02    0.550E+01
DAV:   8    -0.188003347716E+03    0.43205E+02   -0.19543E+02  4836   0.127E+02    0.280E+01
DAV:   9    -0.175714337387E+03    0.12289E+02   -0.59891E+01  4636   0.514E+01    0.152E+01
DAV:  10    -0.174715648585E+03    0.99869E+00   -0.20056E+01  3628   0.386E+01    0.110E+01
DAV:  11    -0.173485772922E+03    0.12299E+01   -0.69344E+00  3572   0.374E+01    0.649E+00
DAV:  12    -0.173105541248E+03    0.38023E+00   -0.33907E+00  4516   0.173E+01    0.321E+00
DAV:  13    -0.173188062392E+03   -0.82521E-01   -0.19309E+00  3700   0.108E+01    0.264E+00
DAV:  14    -0.173169439098E+03    0.18623E-01   -0.62916E-01  3388   0.928E+00    0.170E+00
DAV:  15    -0.173124120554E+03    0.45319E-01   -0.12524E-01  5084   0.485E+00    0.740E-01
DAV:  16    -0.173106282008E+03    0.17839E-01   -0.10009E-01  4492   0.293E+00    0.377E-01
DAV:  17    -0.173101106077E+03    0.51759E-02   -0.65775E-02  3492   0.217E+00    0.401E-01
DAV:  18    -0.173088019853E+03    0.13086E-01   -0.13796E-02  3796   0.131E+00    0.314E-01
DAV:  19    -0.173078999563E+03    0.90203E-02   -0.11185E-02  3996   0.820E-01    0.207E-01
DAV:  20    -0.173074380766E+03    0.46188E-02   -0.42826E-03  4372   0.450E-01    0.182E-01
DAV:  21    -0.173071678331E+03    0.27024E-02   -0.15586E-03  4412   0.321E-01    0.156E-01
DAV:  22    -0.173065244926E+03    0.64334E-02   -0.25517E-03  4797   0.495E-01    0.850E-02
DAV:  23    -0.173061653561E+03    0.35914E-02   -0.47703E-03  4395   0.403E-01    0.658E-02
DAV:  24    -0.173061060109E+03    0.59345E-03   -0.30953E-03  4306   0.302E-01    0.534E-02
DAV:  25    -0.173060529769E+03    0.53034E-03   -0.70757E-04  4339   0.203E-01    0.307E-02
DAV:  26    -0.173060509196E+03    0.20573E-04   -0.70215E-04  4420   0.139E-01    0.144E-02
DAV:  27    -0.173060603318E+03   -0.94122E-04   -0.25231E-04  3924   0.828E-02    0.158E-02
DAV:  28    -0.173060645979E+03   -0.42661E-04   -0.70561E-05  3652   0.591E-02    0.124E-02
DAV:  29    -0.173060714860E+03   -0.68881E-04   -0.17815E-05  4140   0.316E-02    0.525E-03
DAV:  30    -0.173060866202E+03   -0.15134E-03   -0.24831E-05  3592   0.236E-02    0.513E-03
DAV:  31    -0.173060885346E+03   -0.19144E-04   -0.21899E-06  2268   0.158E-02    0.375E-03
DAV:  32    -0.173060905795E+03   -0.20449E-04   -0.11992E-06  2047   0.874E-03    0.253E-03
DAV:  33    -0.173060951439E+03   -0.45644E-04   -0.54408E-06  2866   0.152E-02    0.191E-03
DAV:  34    -0.173060960498E+03   -0.90589E-05   -0.12452E-06  2260   0.647E-03    0.138E-03
DAV:  35    -0.173060966657E+03   -0.61594E-05   -0.42559E-07  1874   0.481E-03    0.781E-04
DAV:  36    -0.173060970786E+03   -0.41285E-05   -0.29751E-07  1879   0.295E-03    0.794E-04
DAV:  37    -0.173060973919E+03   -0.31331E-05   -0.25127E-07  1840   0.447E-03    0.620E-04
DAV:  38    -0.173060974340E+03   -0.42096E-06   -0.18152E-07  1780   0.196E-03
   1 F= -.17306097E+03 E0= -.17303134E+03  d E =-.173061E+03
       N       E                     dE             d eps       ncg     rms          rms(c)
DAV:   1    -0.117336904094E+03    0.55724E+02   -0.73507E+03  3850   0.147E+02    0.313E+01
DAV:   2    -0.232646066172E+03   -0.11531E+03   -0.88645E+02  5066   0.136E+02    0.319E+01
DAV:   3    -0.226977911155E+03    0.56682E+01   -0.37283E+02  4607   0.147E+02    0.371E+01
DAV:   4    -0.213895327284E+03    0.13083E+02   -0.54074E+01  4380   0.802E+01    0.276E+01
DAV:   5    -0.205761315352E+03    0.81340E+01   -0.25817E+01  3844   0.472E+01    0.225E+01
DAV:   6    -0.243304729890E+03   -0.37543E+02   -0.79699E+01  4460   0.454E+01    0.429E+01
DAV:   7    -0.220544320117E+03    0.22760E+02   -0.12464E+01  4092   0.278E+01    0.407E+01
DAV:   8    -0.208996203015E+03    0.11548E+02   -0.83828E+00  4276   0.285E+01    0.170E+01
DAV:   9    -0.205118912086E+03    0.38773E+01   -0.13310E+01  4132   0.396E+01    0.338E+01
DAV:  10    -0.204140327469E+03    0.97858E+00   -0.36442E+01  4180   0.949E+00    0.139E+01
DAV:  11    -0.200113068340E+03    0.40273E+01   -0.25993E+00  4260   0.889E+00    0.809E+00
DAV:  12    -0.203308740249E+03   -0.31957E+01   -0.77106E+00  4260   0.512E+00    0.147E+01
DAV:  13    -0.200600349909E+03    0.27084E+01   -0.33858E-01  4420   0.539E+00    0.969E+00
DAV:  14    -0.200247685079E+03    0.35266E+00   -0.27038E-01  4172   0.345E+00    0.880E+00
DAV:  15    -0.199691903276E+03    0.55578E+00   -0.55750E-01  3988   0.219E+00    0.602E+00
DAV:  16    -0.199661582672E+03    0.30321E-01   -0.36247E-02  3756   0.658E-01    0.577E+00
DAV:  17    -0.199695262923E+03   -0.33680E-01   -0.99864E-03  3964   0.350E-01    0.607E+00
DAV:  18    -0.199748592374E+03   -0.53329E-01   -0.15381E-02  3876   0.427E-01    0.653E+00
DAV:  19    -0.199680934802E+03    0.67658E-01   -0.22884E-02  3764   0.104E+00    0.654E+00
DAV:  20    -0.199530473928E+03    0.15046E+00   -0.34612E-02  3980   0.860E-01    0.562E+00
DAV:  21    -0.199478620682E+03    0.51853E-01   -0.10519E-02  4196   0.415E-01    0.504E+00
DAV:  22    -0.199485618318E+03   -0.69976E-02   -0.17480E-03  4196   0.161E-01    0.518E+00
DAV:  23    -0.199353645422E+03    0.13197E+00   -0.35416E-01  3548   0.715E-01    0.197E+00
DAV:  24    -0.199368274956E+03   -0.14630E-01   -0.82052E-03  3724   0.433E-01    0.192E+00
DAV:  25    -0.199367931469E+03    0.34349E-03   -0.98881E-04  3748   0.148E-01    0.184E+00
DAV:  26    -0.199363591333E+03    0.43401E-02   -0.14659E-03  3692   0.222E-01    0.157E+00
DAV:  27    -0.199357137045E+03    0.64543E-02   -0.11154E-02  3684   0.459E-01    0.987E-01
DAV:  28    -0.199355667319E+03    0.14697E-02   -0.25958E-02  3820   0.334E-01    0.358E-01
DAV:  29    -0.199357184070E+03   -0.15168E-02   -0.23172E-03  3348   0.146E-01    0.376E-01
DAV:  30    -0.199357116017E+03    0.68053E-04   -0.12314E-03  4620   0.116E-01    0.213E-01
DAV:  31    -0.199357373812E+03   -0.25780E-03   -0.20251E-03  3516   0.212E-01    0.207E-01
DAV:  32    -0.199357619409E+03   -0.24560E-03   -0.49639E-04  4156   0.139E-01    0.266E-01
DAV:  33    -0.199357674858E+03   -0.55449E-04   -0.57090E-03  3684   0.852E-02    0.293E-01
DAV:  34    -0.199357413034E+03    0.26182E-03   -0.87120E-04  4012   0.957E-02    0.106E-01
DAV:  35    -0.199357750143E+03   -0.33711E-03   -0.25158E-04  3460   0.433E-02    0.201E-01
DAV:  36    -0.199357633077E+03    0.11707E-03   -0.64386E-04  3564   0.368E-02    0.533E-02
DAV:  37    -0.199357742827E+03   -0.10975E-03   -0.12856E-04  3932   0.288E-02    0.534E-02
DAV:  38    -0.199357783677E+03   -0.40850E-04   -0.25350E-04  3148   0.206E-02    0.658E-02
DAV:  39    -0.199357815693E+03   -0.32016E-04   -0.96493E-06  2826   0.143E-02    0.679E-02
DAV:  40    -0.199357816239E+03   -0.54640E-06   -0.63330E-05  2164   0.117E-02    0.167E-02
DAV:  41    -0.199357853023E+03   -0.36784E-04   -0.30185E-05  2327   0.101E-02    0.280E-02
DAV:  42    -0.199357864882E+03   -0.11859E-04   -0.25720E-05  2178   0.747E-03    0.109E-02
DAV:  43    -0.199357871853E+03   -0.69711E-05   -0.14291E-06  1858   0.560E-03    0.593E-03
DAV:  44    -0.199357876416E+03   -0.45627E-05   -0.53004E-07  1784   0.457E-03    0.855E-03
DAV:  45    -0.199357880359E+03   -0.39436E-05   -0.70781E-06  1754   0.372E-03    0.115E-02
DAV:  46    -0.199357881527E+03   -0.11678E-05   -0.43670E-07  1876   0.314E-03    0.949E-03
DAV:  47    -0.199357881337E+03    0.18964E-06   -0.18544E-07  1668   0.217E-03
   2 F= -.19935788E+03 E0= -.19928460E+03  d E =-.262969E+02
       N       E                     dE             d eps       ncg     rms          rms(c)
DAV:   1    -0.194288636183E+03    0.50692E+01   -0.62108E+02  2938   0.361E+01    0.120E+01
DAV:   2    -0.205670488212E+03   -0.11382E+02   -0.79466E+01  5180   0.537E+01    0.341E+01
DAV:   3    -0.203600159135E+03    0.20703E+01   -0.31958E+01  4415   0.190E+01    0.195E+01
DAV:   4    -0.196877131797E+03    0.67230E+01   -0.11833E+01  4588   0.446E+01    0.784E+00
DAV:   5    -0.196597407262E+03    0.27972E+00   -0.22681E+00  4951   0.282E+01    0.665E+00
DAV:   6    -0.196580370316E+03    0.17037E-01   -0.28969E+00  4479   0.118E+01    0.590E+00
DAV:   7    -0.196591657107E+03   -0.11287E-01   -0.13737E+00  3869   0.505E+00    0.809E+00
DAV:   8    -0.196785062962E+03   -0.19341E+00   -0.50109E+00  3650   0.211E+00    0.122E+01
DAV:   9    -0.196416448865E+03    0.36861E+00   -0.19951E+00  4924   0.454E+00    0.251E+00
DAV:  10    -0.196435421026E+03   -0.18972E-01   -0.51237E-01  5052   0.372E+00    0.224E+00
DAV:  11    -0.196425440248E+03    0.99808E-02   -0.43617E-02  4396   0.195E+00    0.143E+00
DAV:  12    -0.196420771701E+03    0.46685E-02   -0.37198E-02  3476   0.106E+00    0.337E-01
DAV:  13    -0.196422737637E+03   -0.19659E-02   -0.53278E-03  3820   0.749E-01    0.138E-01
DAV:  14    -0.196423004190E+03   -0.26655E-03   -0.11758E-03  3828   0.434E-01    0.115E-01
DAV:  15    -0.196423078439E+03   -0.74249E-04   -0.43551E-04  3268   0.189E-01    0.124E-01
DAV:  16    -0.196423035995E+03    0.42444E-04   -0.28995E-04  3396   0.135E-01    0.290E-02
DAV:  17    -0.196423047564E+03   -0.11569E-04   -0.67475E-05  3764   0.741E-02    0.230E-02
DAV:  18    -0.196423054720E+03   -0.71564E-05   -0.16066E-05  3372   0.360E-02    0.126E-02
DAV:  19    -0.196423059885E+03   -0.51647E-05   -0.79432E-06  3012   0.270E-02    0.701E-03
DAV:  20    -0.196423062010E+03   -0.21249E-05   -0.20219E-06  2004   0.189E-02    0.517E-03
DAV:  21    -0.196423065571E+03   -0.35612E-05   -0.92191E-07  1804   0.793E-03    0.394E-03
DAV:  22    -0.196423067608E+03   -0.20367E-05   -0.93644E-07  1812   0.488E-03    0.163E-03
DAV:  23    -0.196423068548E+03   -0.93994E-06   -0.32456E-07  1788   0.416E-03
   3 F= -.19642307E+03 E0= -.19635482E+03  d E =-.233621E+02
       N       E                     dE             d eps       ncg     rms          rms(c)
DAV:   1    -0.197134951500E+03   -0.71188E+00   -0.45430E+01  2866   0.975E+00    0.174E+00
DAV:   2    -0.197419726511E+03   -0.28478E+00   -0.27571E+00  4580   0.766E+00    0.413E+00
DAV:   3    -0.197524789228E+03   -0.10506E+00   -0.31384E+00  4180   0.499E+00    0.569E+00
DAV:   4    -0.197349229893E+03    0.17556E+00   -0.57822E-01  3796   0.478E+00    0.142E+00
DAV:   5    -0.197341743594E+03    0.74863E-02   -0.51620E-02  3724   0.366E+00    0.649E-01
DAV:   6    -0.197355211129E+03   -0.13468E-01   -0.10091E-01  4060   0.269E+00    0.237E+00
DAV:   7    -0.197349815350E+03    0.53958E-02   -0.22470E-01  3940   0.411E-01    0.174E+00
DAV:   8    -0.197342070389E+03    0.77450E-02   -0.44947E-02  3660   0.234E+00    0.572E-01
DAV:   9    -0.197341400847E+03    0.66954E-03   -0.67858E-03  4356   0.346E-01    0.119E-01
DAV:  10    -0.197341477749E+03   -0.76901E-04   -0.83700E-04  3700   0.302E-01    0.673E-02
DAV:  11    -0.197341511120E+03   -0.33371E-04   -0.17337E-04  3996   0.157E-01    0.537E-02
DAV:  12    -0.197341508734E+03    0.23862E-05   -0.10245E-04  3492   0.852E-02    0.147E-02
DAV:  13    -0.197341513460E+03   -0.47265E-05   -0.24399E-05  3308   0.420E-02    0.825E-03
DAV:  14    -0.197341515044E+03   -0.15834E-05   -0.54897E-06  2940   0.306E-02    0.564E-03
DAV:  15    -0.197341516592E+03   -0.15487E-05   -0.77982E-07  1828   0.123E-02    0.351E-03
DAV:  16    -0.197341518253E+03   -0.16605E-05   -0.12817E-06  1820   0.107E-02    0.218E-03
DAV:  17    -0.197341519394E+03   -0.11412E-05   -0.62205E-07  1764   0.703E-03    0.177E-03
DAV:  18    -0.197341520173E+03   -0.77905E-06   -0.38655E-07  1692   0.428E-03
   4 F= -.19734152E+03 E0= -.19727860E+03  d E =-.242805E+02
       N       E                     dE             d eps       ncg     rms          rms(c)
DAV:   1    -0.198713326433E+03   -0.13718E+01   -0.90627E+01  2850   0.135E+01    0.312E+00
DAV:   2    -0.199176367364E+03   -0.46304E+00   -0.54732E+00  4884   0.157E+01    0.227E+00
DAV:   3    -0.199278248015E+03   -0.10188E+00   -0.17972E+00  3764   0.191E+01    0.540E+00
DAV:   4    -0.199153125299E+03    0.12512E+00   -0.21059E+00  4055   0.401E+00    0.378E+00
DAV:   5    -0.199087434326E+03    0.65691E-01   -0.32912E-01  4655   0.559E+00    0.120E+00
DAV:   6    -0.199088449185E+03   -0.10149E-02   -0.90533E-02  4143   0.496E+00    0.958E-01
DAV:   7    -0.199226533531E+03   -0.13808E+00   -0.11519E+00  4159   0.221E+00    0.836E+00
DAV:   8    -0.199069470419E+03    0.15706E+00   -0.86464E-01  5123   0.170E+00    0.797E-01
DAV:   9    -0.199080754693E+03   -0.11284E-01   -0.18584E-02  3605   0.102E+00    0.329E-01
DAV:  10    -0.199081799890E+03   -0.10452E-02   -0.43518E-03  3442   0.602E-01    0.749E-02
DAV:  11    -0.199082012388E+03   -0.21250E-03   -0.72612E-04  3882   0.265E-01    0.115E-01
DAV:  12    -0.199082053090E+03   -0.40702E-04   -0.44484E-04  3362   0.206E-01    0.803E-02
DAV:  13    -0.199082039845E+03    0.13245E-04   -0.16406E-04  3274   0.136E-01    0.555E-02
DAV:  14    -0.199082042109E+03   -0.22632E-05   -0.58701E-05  3460   0.535E-02    0.145E-02
DAV:  15    -0.199082049045E+03   -0.69368E-05   -0.85611E-06  3052   0.276E-02    0.608E-03
DAV:  16    -0.199082051812E+03   -0.27664E-05   -0.31220E-06  2228   0.187E-02    0.362E-03
DAV:  17    -0.199082055968E+03   -0.41561E-05   -0.20711E-06  1783   0.133E-02    0.778E-03
DAV:  18    -0.199082057365E+03   -0.13974E-05   -0.14247E-06  1812   0.868E-03    0.212E-03
DAV:  19    -0.199082058577E+03   -0.12118E-05   -0.42311E-07  1727   0.510E-03    0.118E-03
DAV:  20    -0.199082059713E+03   -0.11359E-05   -0.26508E-07  1724   0.287E-03    0.823E-04
DAV:  21    -0.199082060804E+03   -0.10913E-05   -0.15710E-07  1740   0.245E-03    0.709E-04
DAV:  22    -0.199082061645E+03   -0.84058E-06   -0.12296E-07  1740   0.228E-03
   5 F= -.19908206E+03 E0= -.19901237E+03  d E =-.260211E+02
       N       E                     dE             d eps       ncg     rms          rms(c)
DAV:   1    -0.199642378839E+03   -0.56032E+00   -0.27330E+01  2850   0.756E+00    0.195E+00
DAV:   2    -0.199801787255E+03   -0.15941E+00   -0.20545E+00  4946   0.102E+01    0.401E+00
DAV:   3    -0.200030670346E+03   -0.22888E+00   -0.36721E+00  4298   0.360E+00    0.916E+00
DAV:   4    -0.199704293583E+03    0.32638E+00   -0.27387E+00  3895   0.869E+00    0.189E+00
DAV:   5    -0.199700465132E+03    0.38285E-02   -0.12082E-01  4120   0.540E+00    0.624E-01
DAV:   6    -0.199730314561E+03   -0.29849E-01   -0.29202E-01  4499   0.404E+00    0.390E+00
DAV:   7    -0.199703140713E+03    0.27174E-01   -0.44421E-01  4092   0.576E-01    0.165E+00
DAV:   8    -0.199697334096E+03    0.58066E-02   -0.50458E-02  3437   0.243E+00    0.194E-01
DAV:   9    -0.199697835905E+03   -0.50181E-03   -0.45191E-03  4060   0.480E-01    0.205E-01
DAV:  10    -0.199697597823E+03    0.23808E-03   -0.94598E-04  3404   0.478E-01    0.113E-01
DAV:  11    -0.199697596123E+03    0.16999E-05   -0.34415E-04  4580   0.117E-01    0.252E-02
DAV:  12    -0.199697629535E+03   -0.33412E-04   -0.17016E-04  3284   0.133E-01    0.199E-02
DAV:  13    -0.199697631833E+03   -0.22984E-05   -0.27392E-05  3452   0.592E-02    0.167E-02
DAV:  14    -0.199697633060E+03   -0.12266E-05   -0.11293E-05  3068   0.235E-02    0.101E-02
DAV:  15    -0.199697633895E+03   -0.83516E-06   -0.40939E-06  2644   0.227E-02
   6 F= -.19969763E+03 E0= -.19962524E+03  d E =-.266367E+02
       N       E                     dE             d eps       ncg     rms          rms(c)
DAV:   1     0.491673055798E+04    0.51164E+04   -0.21469E+04  3516   0.269E+02    0.117E+02
DAV:   2     0.299985847515E+04   -0.19169E+04   -0.16299E+04  5608   0.353E+02    0.313E+02
DAV:   3     0.474492030525E+04    0.17451E+04   -0.14448E+04  5380   0.319E+02    0.150E+02
DAV:   4     0.471438279454E+04   -0.30538E+02   -0.32213E+03  3356   0.325E+02    0.114E+02
DAV:   5     0.468675696450E+04   -0.27626E+02   -0.11738E+03  3828   0.173E+02    0.100E+02
DAV:   6     0.462350473130E+04   -0.63252E+02   -0.35078E+02  3764   0.252E+02    0.168E+02
DAV:   7     0.468796565752E+04    0.64461E+02   -0.29505E+02  4188   0.124E+02    0.597E+01
DAV:   8     0.454188083307E+04   -0.14608E+03   -0.66173E+02  5154   0.108E+02    0.895E+01
DAV:   9     0.463832890294E+04    0.96448E+02   -0.17649E+02  4003   0.712E+01    0.853E+01
DAV:  10     0.472979254234E+04    0.91464E+02   -0.99904E+01  4340   0.498E+01    0.528E+01
DAV:  11     0.473709274050E+04    0.73002E+01   -0.61125E+01  3844   0.261E+01    0.443E+01
DAV:  12     0.474612218380E+04    0.90294E+01   -0.77828E+00  4068   0.924E+00    0.332E+01
DAV:  13     0.475286922440E+04    0.67470E+01   -0.15257E+01  4639   0.991E+00    0.229E+01
DAV:  14     0.475372542855E+04    0.85620E+00   -0.14420E+01  4047   0.727E+00    0.274E+01
DAV:  15     0.475619714642E+04    0.24717E+01   -0.10179E+01  3655   0.156E+01    0.147E+01
DAV:  16     0.475701132444E+04    0.81418E+00   -0.46676E+00  4484   0.755E+00    0.129E+01
DAV:  17     0.475739603044E+04    0.38471E+00   -0.10372E+00  5212   0.585E+00    0.148E+01
DAV:  18     0.475790667373E+04    0.51064E+00   -0.34115E+00  4364   0.236E+00    0.115E+01
DAV:  19     0.475808734106E+04    0.18067E+00   -0.20196E+00  3724   0.185E+00    0.102E+01
DAV:  20     0.475797282760E+04   -0.11451E+00   -0.68236E+00  3887   0.420E+00    0.138E+01
DAV:  21     0.475743700000E+04   -0.53583E+00   -0.18130E+00  5212   0.288E+00    0.174E+01
DAV:  22     0.475898743906E+04    0.15504E+01   -0.20215E+00  4276   0.674E+00    0.627E+00
DAV:  23     0.475904321660E+04    0.55778E-01   -0.13750E+00  4180   0.296E+00    0.538E+00
DAV:  24     0.475908326872E+04    0.40052E-01   -0.90175E-01  4244   0.185E+00    0.531E+00
DAV:  25     0.475910950669E+04    0.26238E-01   -0.24301E-01  3540   0.218E+00    0.480E+00
DAV:  26     0.475915959063E+04    0.50084E-01   -0.12538E-01  4028   0.116E+00    0.427E+00
DAV:  27     0.475915838913E+04   -0.12015E-02   -0.79803E-01  3900   0.205E+00    0.548E+00
DAV:  28     0.475917078910E+04    0.12400E-01   -0.70048E-02  3972   0.712E-01    0.542E+00
DAV:  29     0.475921084616E+04    0.40057E-01   -0.27561E-02  3284   0.446E-01    0.408E+00
DAV:  30     0.475921617122E+04    0.53251E-02   -0.55221E-03  4356   0.838E-01    0.388E+00
DAV:  31     0.475924317019E+04    0.26999E-01   -0.40568E-01  4980   0.865E-01    0.175E+00
DAV:  32     0.475924656408E+04    0.33939E-02   -0.30197E-02  4828   0.643E-01    0.767E-01
DAV:  33     0.475924952006E+04    0.29560E-02   -0.15490E-02  5092   0.525E-01    0.119E+00
DAV:  34     0.475925014043E+04    0.62037E-03   -0.80686E-03  5020   0.408E-01    0.158E+00
DAV:  35     0.475925410528E+04    0.39649E-02   -0.26791E-03  3388   0.150E-01    0.127E+00
DAV:  36     0.475925539634E+04    0.12911E-02   -0.11256E-03  4724   0.243E-01    0.137E+00
DAV:  37     0.475926387796E+04    0.84816E-02   -0.10264E-02  4580   0.412E-01    0.703E-01
DAV:  38     0.475926486020E+04    0.98223E-03   -0.13272E-03  4244   0.145E-01    0.724E-01
DAV:  39     0.475926771709E+04    0.28569E-02   -0.16377E-03  4028   0.193E-01    0.604E-01
DAV:  40     0.475927038628E+04    0.26692E-02   -0.10881E-03  4068   0.145E-01    0.419E-01
DAV:  41     0.475927267736E+04    0.22911E-02   -0.73965E-04  4572   0.127E-01    0.392E-01
DAV:  42     0.475927415513E+04    0.14778E-02   -0.54006E-04  4276   0.121E-01    0.439E-01
DAV:  43     0.475927530602E+04    0.11509E-02   -0.33018E-04  4620   0.108E-01    0.459E-01
DAV:  44     0.475927642846E+04    0.11224E-02   -0.92187E-04  4540   0.127E-01    0.228E-01
DAV:  45     0.475927670234E+04    0.27388E-03   -0.21574E-04  4652   0.794E-02    0.146E-01
DAV:  46     0.475927680931E+04    0.10697E-03   -0.25365E-04  4340   0.555E-02    0.241E-01
DAV:  47     0.475927708342E+04    0.27411E-03   -0.21130E-04  3236   0.435E-02    0.131E-01
DAV:  48     0.475927712286E+04    0.39446E-04   -0.44790E-05  3292   0.393E-02    0.846E-02
DAV:  49     0.475927716096E+04    0.38093E-04   -0.16215E-05  3020   0.218E-02    0.704E-02
DAV:  50     0.475927721428E+04    0.53330E-04   -0.34416E-05  3404   0.245E-02    0.448E-02
DAV:  51     0.475927721331E+04   -0.97754E-06   -0.11115E-05  2364   0.236E-02    0.395E-02
DAV:  52     0.475927725282E+04    0.39514E-04   -0.14307E-05  2532   0.511E-02    0.283E-02
DAV:  53     0.475927723754E+04   -0.15284E-04   -0.99511E-06  2868   0.125E-02    0.305E-02
DAV:  54     0.475927723799E+04    0.44971E-06   -0.11122E-05  2220   0.108E-02    0.752E-03
DAV:  55     0.475927723651E+04   -0.14722E-05   -0.11247E-06  1884   0.860E-03    0.552E-03
DAV:  56     0.475927723100E+04   -0.55133E-05   -0.58395E-07  1820   0.772E-03    0.276E-03
DAV:  57     0.475927722201E+04   -0.89927E-05   -0.52896E-07  1844   0.554E-03    0.296E-03
DAV:  58     0.475927720790E+04   -0.14112E-04   -0.80555E-07  2052   0.474E-03    0.344E-03
DAV:  59     0.475927720402E+04   -0.38765E-05   -0.29153E-07  1772   0.333E-03    0.267E-03
DAV:  60     0.475927720080E+04   -0.32150E-05   -0.18795E-07  1700   0.323E-03    0.207E-03
DAV:  61     0.475927719615E+04   -0.46566E-05   -0.25611E-07  1828   0.231E-03    0.916E-04
DAV:  62     0.475927719484E+04   -0.13110E-05   -0.14002E-07  1636   0.193E-03    0.803E-04
DAV:  63     0.475927719450E+04   -0.33289E-06   -0.78270E-08  1540   0.152E-03
   7 F= 0.47592772E+04 E0= 0.47594234E+04  d E =0.495897E+04
       N       E                     dE             d eps       ncg     rms          rms(c)
DAV:   1     0.849991454110E+02   -0.46743E+04   -0.19159E+04  3667   0.301E+02    0.117E+02
DAV:   2    -0.456416058204E+03   -0.54142E+03   -0.33687E+03  4641   0.306E+02    0.136E+02
DAV:   3    -0.317203594930E+03    0.13921E+03   -0.22038E+03  4932   0.331E+02    0.119E+02
DAV:   4    -0.282024215546E+03    0.35179E+02   -0.92619E+02  4244   0.183E+02    0.772E+01
DAV:   5    -0.255730685378E+03    0.26294E+02   -0.43941E+02  3988   0.820E+01    0.517E+01
DAV:   6    -0.227590596841E+03    0.28140E+02   -0.11430E+02  4100   0.755E+01    0.418E+01
DAV:   7    -0.230869611780E+03   -0.32790E+01   -0.12572E+02  3940   0.973E+01    0.353E+01
DAV:   8    -0.216688305550E+03    0.14181E+02   -0.42014E+01  4108   0.785E+01    0.261E+01
DAV:   9    -0.207857381851E+03    0.88309E+01   -0.23812E+01  4612   0.305E+01    0.214E+01
DAV:  10    -0.204432188976E+03    0.34252E+01   -0.73408E+00  3964   0.139E+01    0.148E+01
DAV:  11    -0.203467323872E+03    0.96487E+00   -0.14818E+00  3908   0.556E+00    0.117E+01
DAV:  12    -0.203812292455E+03   -0.34497E+00   -0.34226E-01  3580   0.386E+00    0.133E+01
DAV:  13    -0.201917559791E+03    0.18947E+01   -0.26121E+00  3644   0.112E+01    0.781E+00
DAV:  14    -0.201362584316E+03    0.55498E+00   -0.82331E-01  4748   0.721E+00    0.737E+00
DAV:  15    -0.201452345304E+03   -0.89761E-01   -0.33874E+00  4676   0.250E+00    0.120E+01
DAV:  16    -0.200578894740E+03    0.87345E+00   -0.18686E+00  4996   0.837E+00    0.650E+00
DAV:  17    -0.200455107848E+03    0.12379E+00   -0.70214E-01  4284   0.314E+00    0.564E+00
DAV:  18    -0.200365375375E+03    0.89732E-01   -0.15904E-01  3943   0.195E+00    0.368E+00
DAV:  19    -0.200262395268E+03    0.10298E+00   -0.41194E-01  3868   0.337E+00    0.294E+00
DAV:  20    -0.200251186234E+03    0.11209E-01   -0.94820E-01  4140   0.437E+00    0.497E+00
DAV:  21    -0.200164199688E+03    0.86987E-01   -0.46312E-01  4055   0.156E+00    0.147E+00
DAV:  22    -0.200142036629E+03    0.22163E-01   -0.15799E-01  3844   0.282E+00    0.217E+00
DAV:  23    -0.200110406625E+03    0.31630E-01   -0.46663E-02  4268   0.156E+00    0.162E+00
DAV:  24    -0.200131135697E+03   -0.20729E-01   -0.32970E-01  3927   0.908E-01    0.241E+00
DAV:  25    -0.200130068928E+03    0.10668E-02   -0.26278E-02  3764   0.151E+00    0.268E+00
DAV:  26    -0.200099887730E+03    0.30181E-01   -0.48170E-02  3708   0.675E-01    0.126E+00
DAV:  27    -0.200105677792E+03   -0.57901E-02   -0.12999E-02  3797   0.679E-01    0.152E+00
DAV:  28    -0.200103776095E+03    0.19017E-02   -0.54959E-03  3693   0.543E-01    0.117E+00
DAV:  29    -0.200101556867E+03    0.22192E-02   -0.28602E-02  3634   0.464E-01    0.145E-01
DAV:  30    -0.200104862307E+03   -0.33054E-02   -0.14909E-03  4032   0.225E-01    0.171E-01
DAV:  31    -0.200105712909E+03   -0.85060E-03   -0.23361E-03  3559   0.261E-01    0.157E-01
DAV:  32    -0.200106948387E+03   -0.12355E-02   -0.15969E-03  3528   0.216E-01    0.141E-01
DAV:  33    -0.200107929012E+03   -0.98062E-03   -0.64420E-04  4282   0.147E-01    0.274E-01
DAV:  34    -0.200108023160E+03   -0.94148E-04   -0.81206E-04  3818   0.864E-02    0.102E-01
DAV:  35    -0.200108595618E+03   -0.57246E-03   -0.10917E-04  3509   0.969E-02    0.508E-02
DAV:  36    -0.200108912849E+03   -0.31723E-03   -0.55214E-05  3935   0.492E-02    0.436E-02
DAV:  37    -0.200109361790E+03   -0.44894E-03   -0.99153E-05  3610   0.400E-02    0.227E-02
DAV:  38    -0.200109527648E+03   -0.16586E-03   -0.17869E-05  3655   0.289E-02    0.307E-02
DAV:  39    -0.200109625446E+03   -0.97798E-04   -0.64704E-06  2735   0.217E-02    0.232E-02
DAV:  40    -0.200109707311E+03   -0.81865E-04   -0.11005E-05  2461   0.128E-02    0.644E-03
DAV:  41    -0.200109773612E+03   -0.66301E-04   -0.45600E-06  2519   0.191E-02    0.846E-03
DAV:  42    -0.200109812454E+03   -0.38841E-04   -0.54082E-06  1992   0.104E-02    0.855E-03
DAV:  43    -0.200109830878E+03   -0.18424E-04   -0.12362E-06  1885   0.104E-02    0.105E-02
DAV:  44    -0.200109847003E+03   -0.16125E-04   -0.13594E-06  1760   0.756E-03    0.564E-03
DAV:  45    -0.200109859003E+03   -0.12000E-04   -0.16134E-06  1864   0.449E-03    0.433E-03
DAV:  46    -0.200109863706E+03   -0.47028E-05   -0.83284E-07  1754   0.321E-03    0.170E-03
DAV:  47    -0.200109866404E+03   -0.26979E-05   -0.19377E-07  1781   0.301E-03    0.861E-04
DAV:  48    -0.200109871946E+03   -0.55417E-05   -0.19214E-07  1757   0.213E-03    0.178E-03
DAV:  49    -0.200109873700E+03   -0.17548E-05   -0.11728E-07  1773   0.188E-03    0.602E-04
DAV:  50    -0.200109874380E+03   -0.67940E-06   -0.49369E-08  1746   0.108E-03
   8 F= -.20010987E+03 E0= -.20003741E+03  d E =-.412240E+00
       N       E                     dE             d eps       ncg     rms          rms(c)
DAV:   1    -0.200491566109E+03   -0.38169E+00   -0.16814E-01  2850   0.588E-01    0.181E-01
DAV:   2    -0.200491878836E+03   -0.31273E-03   -0.86289E-03  4267   0.287E-01    0.321E-01
DAV:   3    -0.200493227691E+03   -0.13489E-02   -0.16896E-02  4686   0.222E-01    0.695E-01
DAV:   4    -0.200490871849E+03    0.23558E-02   -0.85255E-03  3691   0.389E-01    0.929E-02
DAV:   5    -0.200492639105E+03   -0.17673E-02   -0.11199E-02  3752   0.274E-01    0.839E-01
DAV:   6    -0.200491131638E+03    0.15075E-02   -0.11555E-02  4565   0.684E-02    0.873E-02
DAV:   7    -0.200491329009E+03   -0.19737E-03   -0.33370E-04  3467   0.337E-01    0.456E-02
DAV:   8    -0.200491315565E+03    0.13444E-04   -0.67418E-05  3788   0.208E-01    0.130E-02
DAV:   9    -0.200491319547E+03   -0.39825E-05   -0.22396E-05  4157   0.657E-02    0.211E-02
DAV:  10    -0.200491320815E+03   -0.12678E-05   -0.55307E-06  2797   0.306E-02    0.129E-02
DAV:  11    -0.200491323045E+03   -0.22299E-05   -0.30433E-06  1864   0.154E-02    0.532E-03
DAV:  12    -0.200491325501E+03   -0.24561E-05   -0.12538E-06  1760   0.854E-03    0.288E-03
DAV:  13    -0.200491328036E+03   -0.25344E-05   -0.72541E-07  1694   0.667E-03    0.153E-03
DAV:  14    -0.200491331057E+03   -0.30217E-05   -0.64367E-07  1750   0.531E-03    0.161E-03
DAV:  15    -0.200491332527E+03   -0.14700E-05   -0.29617E-07  1710   0.265E-03    0.220E-03
DAV:  16    -0.200491334373E+03   -0.18454E-05   -0.23436E-07  1726   0.324E-03    0.177E-03
DAV:  17    -0.200491335470E+03   -0.10971E-05   -0.13422E-07  1702   0.239E-03    0.124E-03
DAV:  18    -0.200491336643E+03   -0.11735E-05   -0.15408E-07  1678   0.184E-03    0.390E-04
DAV:  19    -0.200491337070E+03   -0.42684E-06   -0.76231E-08  1674   0.111E-03
   9 F= -.20049134E+03 E0= -.20041885E+03  d E =-.793703E+00
       N       E                     dE             d eps       ncg     rms          rms(c)
DAV:   1    -0.206247774900E+03   -0.57564E+01   -0.11314E+02  2850   0.152E+01    0.443E+00
DAV:   2    -0.206472521719E+03   -0.22475E+00   -0.60850E+00  4280   0.705E+00    0.621E+00
DAV:   3    -0.207739692953E+03   -0.12672E+01   -0.14661E+01  4661   0.608E+00    0.205E+01
DAV:   4    -0.206145405439E+03    0.15943E+01   -0.82600E+00  4020   0.969E+00    0.229E+00
DAV:   5    -0.206240675984E+03   -0.95271E-01   -0.59058E-01  3743   0.104E+01    0.436E+00
DAV:   6    -0.206530213573E+03   -0.28954E+00   -0.37726E+00  4716   0.209E+00    0.129E+01
DAV:   7    -0.206166704578E+03    0.36351E+00   -0.19419E+00  3868   0.695E+00    0.120E+00
DAV:   8    -0.206190853160E+03   -0.24149E-01   -0.61228E-02  3980   0.538E+00    0.633E-01
DAV:   9    -0.206190651197E+03    0.20196E-03   -0.16821E-02  4500   0.259E+00    0.484E-01
DAV:  10    -0.206190313006E+03    0.33819E-03   -0.66634E-03  4268   0.805E-01    0.157E-01
DAV:  11    -0.206190933223E+03   -0.62022E-03   -0.22050E-03  3924   0.422E-01    0.173E-01
DAV:  12    -0.206191247369E+03   -0.31415E-03   -0.95755E-04  3524   0.319E-01    0.115E-01
DAV:  13    -0.206191516661E+03   -0.26929E-03   -0.30891E-04  3340   0.154E-01    0.428E-02
DAV:  14    -0.206191861918E+03   -0.34526E-03   -0.13064E-04  3360   0.711E-02    0.169E-02
DAV:  15    -0.206192100302E+03   -0.23838E-03   -0.53995E-05  3700   0.692E-02    0.351E-02
DAV:  16    -0.206192290694E+03   -0.19039E-03   -0.31702E-05  3594   0.522E-02    0.323E-02
DAV:  17    -0.206192432530E+03   -0.14184E-03   -0.27631E-05  3372   0.284E-02    0.100E-02
DAV:  18    -0.206192539101E+03   -0.10657E-03   -0.17853E-05  2810   0.179E-02    0.895E-03
DAV:  19    -0.206192572021E+03   -0.32921E-04   -0.30460E-06  2652   0.171E-02    0.997E-03
DAV:  20    -0.206192596905E+03   -0.24884E-04   -0.21503E-06  2223   0.992E-03    0.573E-03
DAV:  21    -0.206192610378E+03   -0.13473E-04   -0.16033E-06  2076   0.649E-03    0.203E-03
DAV:  22    -0.206192616492E+03   -0.61134E-05   -0.55053E-07  1876   0.687E-03    0.259E-03
DAV:  23    -0.206192621809E+03   -0.53175E-05   -0.36883E-07  1804   0.435E-03    0.153E-03
DAV:  24    -0.206192625834E+03   -0.40247E-05   -0.24773E-07  1812   0.350E-03    0.119E-03
DAV:  25    -0.206192628040E+03   -0.22059E-05   -0.17458E-07  1700   0.270E-03    0.107E-03
DAV:  26    -0.206192630017E+03   -0.19768E-05   -0.10804E-07  1756   0.261E-03    0.811E-04
DAV:  27    -0.206192630784E+03   -0.76776E-06   -0.67157E-08  1612   0.154E-03
  10 F= -.20619263E+03 E0= -.20611959E+03  d E =-.649500E+01
       N       E                     dE             d eps       ncg     rms          rms(c)
DAV:   1    -0.559081669006E+02    0.15028E+03   -0.88862E+03  3114   0.145E+02    0.641E+01
DAV:   2    -0.730863841015E+03   -0.67496E+03   -0.39294E+03  5524   0.204E+02    0.180E+02
DAV:   3    -0.151708123234E+03    0.57916E+03   -0.38142E+03  5348   0.240E+02    0.920E+01
DAV:   4    -0.110924918054E+03    0.40783E+02   -0.12587E+03  3996   0.193E+02    0.521E+01
DAV:   5    -0.108811483766E+03    0.21134E+01   -0.30174E+02  4196   0.968E+01    0.304E+01
DAV:   6    -0.123072156980E+03   -0.14261E+02   -0.14079E+02  4428   0.591E+01    0.402E+01
DAV:   7    -0.111907429968E+03    0.11165E+02   -0.43479E+01  3972   0.310E+01    0.272E+01
DAV:   8    -0.107432990020E+03    0.44744E+01   -0.18592E+01  4796   0.203E+01    0.278E+01
DAV:   9    -0.107218171297E+03    0.21482E+00   -0.21684E+01  4388   0.123E+01    0.160E+01
DAV:  10    -0.107093426980E+03    0.12474E+00   -0.11823E+01  4188   0.185E+01    0.226E+01
DAV:  11    -0.105199098754E+03    0.18943E+01   -0.58937E+00  5140   0.851E+00    0.144E+01
DAV:  12    -0.104838624170E+03    0.36047E+00   -0.24903E+00  4540   0.818E+00    0.107E+01
DAV:  13    -0.104867311068E+03   -0.28687E-01   -0.27278E+00  4524   0.433E+00    0.115E+01
DAV:  14    -0.104693487185E+03    0.17382E+00   -0.16184E+00  4196   0.178E+00    0.107E+01
DAV:  15    -0.104487377906E+03    0.20611E+00   -0.14345E+00  4244   0.140E+00    0.584E+00
DAV:  16    -0.104753397448E+03   -0.26602E+00   -0.18656E+00  4820   0.220E+00    0.103E+01
DAV:  17    -0.104740496152E+03    0.12901E-01   -0.17384E+00  4020   0.192E+00    0.988E+00
DAV:  18    -0.104462866293E+03    0.27763E+00   -0.15609E+00  5084   0.248E+00    0.622E+00
DAV:  19    -0.104447521999E+03    0.15344E-01   -0.25810E-01  4060   0.144E+00    0.438E+00
DAV:  20    -0.104415048896E+03    0.32473E-01   -0.96622E-02  4172   0.185E+00    0.234E+00
DAV:  21    -0.104432063301E+03   -0.17014E-01   -0.14611E-01  4556   0.196E+00    0.321E+00
DAV:  22    -0.104401085904E+03    0.30977E-01   -0.11111E-01  4116   0.710E-01    0.108E+00
DAV:  23    -0.104402738912E+03   -0.16530E-02   -0.92904E-03  4740   0.873E-01    0.861E-01
DAV:  24    -0.104400559776E+03    0.21791E-02   -0.95240E-03  4996   0.564E-01    0.700E-01
DAV:  25    -0.104399059078E+03    0.15007E-02   -0.53944E-03  4476   0.363E-01    0.289E-01
DAV:  26    -0.104398877858E+03    0.18122E-03   -0.19558E-03  3511   0.307E-01    0.169E-01
DAV:  27    -0.104398942798E+03   -0.64939E-04   -0.78429E-04  3439   0.250E-01    0.104E-01
DAV:  28    -0.104399666497E+03   -0.72370E-03   -0.13275E-03  3640   0.121E-01    0.306E-01
DAV:  29    -0.104399880387E+03   -0.21389E-03   -0.60762E-04  3826   0.168E-01    0.243E-01
DAV:  30    -0.104400416441E+03   -0.53605E-03   -0.43571E-04  3900   0.792E-02    0.165E-01
DAV:  31    -0.104401245314E+03   -0.82887E-03   -0.24648E-04  3693   0.971E-02    0.165E-01
DAV:  32    -0.104401712005E+03   -0.46669E-03   -0.28111E-04  3788   0.123E-01    0.543E-02
DAV:  33    -0.104402246571E+03   -0.53457E-03   -0.19441E-04  4784   0.991E-02    0.748E-02
DAV:  34    -0.104402585240E+03   -0.33867E-03   -0.79916E-05  4012   0.379E-02    0.418E-02
DAV:  35    -0.104402699430E+03   -0.11419E-03   -0.27534E-05  3403   0.360E-02    0.249E-02
DAV:  36    -0.104402899448E+03   -0.20002E-03   -0.27856E-05  3448   0.179E-02    0.264E-02
DAV:  37    -0.104402989115E+03   -0.89667E-04   -0.18654E-05  2751   0.161E-02    0.169E-02
DAV:  38    -0.104403074367E+03   -0.85253E-04   -0.11347E-05  2696   0.103E-02    0.132E-02
DAV:  39    -0.104403157437E+03   -0.83070E-04   -0.78706E-06  2701   0.118E-02    0.102E-02
DAV:  40    -0.104403182270E+03   -0.24833E-04   -0.17272E-06  2212   0.945E-03    0.535E-03
DAV:  41    -0.104403219214E+03   -0.36944E-04   -0.31142E-06  2384   0.564E-03    0.577E-03
DAV:  42    -0.104403239037E+03   -0.19823E-04   -0.12492E-06  2052   0.601E-03    0.298E-03
DAV:  43    -0.104403244692E+03   -0.56552E-05   -0.37289E-07  1916   0.419E-03    0.191E-03
DAV:  44    -0.104403251479E+03   -0.67871E-05   -0.47997E-07  1858   0.289E-03    0.227E-03
DAV:  45    -0.104403259521E+03   -0.80421E-05   -0.61957E-07  1954   0.295E-03    0.174E-03
DAV:  46    -0.104403264030E+03   -0.45084E-05   -0.33307E-07  1892   0.261E-03    0.194E-03
DAV:  47    -0.104403265681E+03   -0.16516E-05   -0.13338E-07  1634   0.197E-03    0.101E-03
DAV:  48    -0.104403267714E+03   -0.20327E-05   -0.10914E-07  1786   0.148E-03    0.107E-03
DAV:  49    -0.104403268980E+03   -0.12660E-05   -0.72207E-08  1700   0.999E-04    0.568E-04
DAV:  50    -0.104403270215E+03   -0.12353E-05   -0.55488E-08  1757   0.112E-03    0.367E-04
DAV:  51    -0.104403270735E+03   -0.51921E-06   -0.32998E-08  1604   0.743E-04
  11 F= -.10440327E+03 E0= -.10427718E+03  d E =0.952944E+02
       N       E                     dE             d eps       ncg     rms          rms(c)
DAV:   1    -0.124727108060E+03   -0.20324E+02   -0.72261E+03  3462   0.152E+02    0.794E+01
DAV:   2    -0.221254410780E+03   -0.96527E+02   -0.10645E+03  4348   0.112E+02    0.482E+01
DAV:   3    -0.251831900057E+03   -0.30577E+02   -0.18272E+02  4548   0.636E+01    0.413E+01
DAV:   4    -0.216491335819E+03    0.35341E+02   -0.48537E+01  4964   0.484E+01    0.329E+01
DAV:   5    -0.208467902840E+03    0.80234E+01   -0.26020E+01  4327   0.798E+01    0.228E+01
DAV:   6    -0.235623977346E+03   -0.27156E+02   -0.14448E+02  4695   0.423E+01    0.427E+01
DAV:   7    -0.206530095819E+03    0.29094E+02   -0.68857E+00  4255   0.325E+01    0.155E+01
DAV:   8    -0.208972073921E+03   -0.24420E+01   -0.34456E+01  3772   0.273E+01    0.259E+01
DAV:   9    -0.207219278318E+03    0.17528E+01   -0.23931E+01  4228   0.704E+00    0.140E+01
DAV:  10    -0.206953334522E+03    0.26594E+00   -0.29706E+01  4247   0.134E+01    0.193E+01
DAV:  11    -0.206259960138E+03    0.69337E+00   -0.21334E+01  4532   0.750E+00    0.866E+00
DAV:  12    -0.206785123054E+03   -0.52516E+00   -0.83810E-01  4108   0.655E+00    0.125E+01
DAV:  13    -0.205582077823E+03    0.12030E+01   -0.94236E+00  4524   0.336E+00    0.564E+00
DAV:  14    -0.205552633848E+03    0.29444E-01   -0.21889E-01  3716   0.104E+00    0.410E+00
DAV:  15    -0.205523172602E+03    0.29461E-01   -0.10319E-01  4028   0.747E-01    0.291E+00
DAV:  16    -0.205562365513E+03   -0.39193E-01   -0.21201E-01  3820   0.142E+00    0.599E+00
DAV:  17    -0.205508055700E+03    0.54310E-01   -0.16579E-01  4196   0.957E-01    0.263E+00
DAV:  18    -0.205507740651E+03    0.31505E-03   -0.65559E-02  4476   0.571E-01    0.150E+00
DAV:  19    -0.205507442992E+03    0.29766E-03   -0.10651E-01  4012   0.530E-01    0.122E+00
DAV:  20    -0.205504697992E+03    0.27450E-02   -0.48378E-03  3884   0.224E-01    0.864E-01
DAV:  21    -0.205504962583E+03   -0.26459E-03   -0.14610E-03  4340   0.500E-01    0.776E-01
DAV:  22    -0.205504467311E+03    0.49527E-03   -0.28671E-02  5092   0.346E-01    0.604E-01
DAV:  23    -0.205505913708E+03   -0.14464E-02   -0.24502E-03  3956   0.181E-01    0.795E-01
DAV:  24    -0.205503672336E+03    0.22414E-02   -0.10666E-02  4292   0.150E-01    0.117E-01
DAV:  25    -0.205505774067E+03   -0.21017E-02   -0.43710E-03  3956   0.132E-01    0.502E-01
DAV:  26    -0.205506081267E+03   -0.30720E-03   -0.50108E-04  3852   0.106E-01    0.475E-01
DAV:  27    -0.205505894638E+03    0.18663E-03   -0.15383E-03  4460   0.663E-02    0.204E-01
DAV:  28    -0.205506301616E+03   -0.40698E-03   -0.90240E-04  4340   0.479E-02    0.104E-01
DAV:  29    -0.205506679889E+03   -0.37827E-03   -0.25829E-04  3924   0.453E-02    0.665E-02
DAV:  30    -0.205506875906E+03   -0.19602E-03   -0.91486E-05  3684   0.328E-02    0.601E-02
DAV:  31    -0.205507008991E+03   -0.13308E-03   -0.28715E-05  3180   0.216E-02    0.277E-02
DAV:  32    -0.205507096935E+03   -0.87944E-04   -0.58960E-05  2924   0.194E-02    0.315E-02
DAV:  33    -0.205507132107E+03   -0.35172E-04   -0.29822E-05  2492   0.135E-02    0.317E-02
DAV:  34    -0.205507161106E+03   -0.28999E-04   -0.96862E-06  2268   0.892E-03    0.180E-02
DAV:  35    -0.205507175936E+03   -0.14830E-04   -0.86158E-06  2132   0.925E-03    0.705E-03
DAV:  36    -0.205507189396E+03   -0.13459E-04   -0.12511E-06  1868   0.543E-03    0.111E-02
DAV:  37    -0.205507202348E+03   -0.12952E-04   -0.82634E-07  1684   0.393E-03    0.148E-02
DAV:  38    -0.205507210177E+03   -0.78291E-05   -0.17140E-06  1764   0.377E-03    0.809E-03
DAV:  39    -0.205507214933E+03   -0.47567E-05   -0.19540E-06  1604   0.317E-03    0.237E-03
DAV:  40    -0.205507219938E+03   -0.50050E-05   -0.66539E-07  1796   0.228E-03    0.698E-03
DAV:  41    -0.205507222116E+03   -0.21775E-05   -0.19970E-07  1708   0.183E-03    0.555E-03
DAV:  42    -0.205507224611E+03   -0.24954E-05   -0.16267E-07  1764   0.147E-03    0.328E-03
DAV:  43    -0.205507226156E+03   -0.15451E-05   -0.42464E-07  1764   0.112E-03    0.160E-03
DAV:  44    -0.205507226869E+03   -0.71229E-06   -0.51809E-08  1716   0.108E-03
  12 F= -.20550723E+03 E0= -.20543418E+03  d E =-.580959E+01
       N       E                     dE             d eps       ncg     rms          rms(c)
DAV:   1    -0.206583186859E+03   -0.10760E+01   -0.46750E+01  2850   0.105E+01    0.276E+00
DAV:   2    -0.206835055768E+03   -0.25187E+00   -0.29326E+00  4324   0.523E+00    0.683E+00
DAV:   3    -0.206878180434E+03   -0.43125E-01   -0.45639E+00  4549   0.300E+00    0.625E+00
DAV:   4    -0.206662299350E+03    0.21588E+00   -0.58422E-01  3788   0.833E+00    0.216E+00
DAV:   5    -0.206663558727E+03   -0.12594E-02   -0.10396E-01  3799   0.870E+00    0.180E+00
DAV:   6    -0.206756829160E+03   -0.93270E-01   -0.98082E-01  4252   0.450E+00    0.781E+00
DAV:   7    -0.206630621850E+03    0.12621E+00   -0.74256E-01  4436   0.944E-01    0.111E+00
DAV:   8    -0.206640305848E+03   -0.96840E-02   -0.30644E-02  3772   0.229E+00    0.573E-01
DAV:   9    -0.206641997628E+03   -0.16918E-02   -0.68399E-03  4196   0.948E-01    0.209E-01
DAV:  10    -0.206642335622E+03   -0.33799E-03   -0.16288E-03  4148   0.230E-01    0.834E-02
DAV:  11    -0.206642557763E+03   -0.22214E-03   -0.43463E-04  3692   0.237E-01    0.939E-02
DAV:  12    -0.206642630739E+03   -0.72975E-04   -0.15637E-04  3548   0.150E-01    0.585E-02
DAV:  13    -0.206642757189E+03   -0.12645E-03   -0.74670E-05  3964   0.718E-02    0.355E-02
DAV:  14    -0.206642911108E+03   -0.15392E-03   -0.55024E-05  3596   0.441E-02    0.145E-02
DAV:  15    -0.206642995255E+03   -0.84147E-04   -0.10946E-05  3556   0.350E-02    0.187E-02
DAV:  16    -0.206643085330E+03   -0.90075E-04   -0.64865E-06  2852   0.193E-02    0.143E-02
DAV:  17    -0.206643156006E+03   -0.70676E-04   -0.67865E-06  2860   0.232E-02    0.463E-03
DAV:  18    -0.206643199486E+03   -0.43480E-04   -0.30146E-06  2476   0.117E-02    0.548E-03
DAV:  19    -0.206643228606E+03   -0.29119E-04   -0.16983E-06  2220   0.883E-03    0.343E-03
DAV:  20    -0.206643245768E+03   -0.17162E-04   -0.65875E-07  1932   0.694E-03    0.365E-03
DAV:  21    -0.206643256203E+03   -0.10435E-04   -0.47410E-07  1828   0.584E-03    0.266E-03
DAV:  22    -0.206643261327E+03   -0.51243E-05   -0.35808E-07  1764   0.311E-03    0.712E-04
DAV:  23    -0.206643266630E+03   -0.53031E-05   -0.20680E-07  1716   0.241E-03    0.622E-04
DAV:  24    -0.206643268874E+03   -0.22436E-05   -0.10380E-07  1580   0.224E-03    0.701E-04
DAV:  25    -0.206643271071E+03   -0.21969E-05   -0.69822E-08  1724   0.138E-03    0.857E-04
DAV:  26    -0.206643272443E+03   -0.13717E-05   -0.44101E-08  1604   0.937E-04    0.304E-04
DAV:  27    -0.206643273018E+03   -0.57521E-06   -0.21733E-08  1612   0.919E-04
  13 F= -.20664327E+03 E0= -.20657015E+03  d E =-.694564E+01
       N       E                     dE             d eps       ncg     rms          rms(c)
DAV:   1    -0.206661237633E+03   -0.17965E-01   -0.70271E-01  2890   0.125E+00    0.340E-01
DAV:   2    -0.206664013386E+03   -0.27758E-02   -0.36400E-02  4220   0.608E-01    0.674E-01
DAV:   3    -0.206666636718E+03   -0.26233E-02   -0.56472E-02  4596   0.397E-01    0.108E+00
DAV:   4    -0.206661117182E+03    0.55195E-02   -0.20011E-02  3772   0.879E-01    0.190E-01
DAV:   5    -0.206662002715E+03   -0.88553E-03   -0.26504E-03  3719   0.775E-01    0.315E-01
DAV:   6    -0.206662854272E+03   -0.85156E-03   -0.14962E-02  4708   0.136E-01    0.762E-01
DAV:   7    -0.206661660462E+03    0.11938E-02   -0.85063E-03  4012   0.576E-01    0.108E-01
DAV:   8    -0.206661765885E+03   -0.10542E-03   -0.36990E-04  4220   0.374E-01    0.319E-02
DAV:   9    -0.206661782070E+03   -0.16184E-04   -0.79022E-05  4436   0.103E-01    0.349E-02
DAV:  10    -0.206661784257E+03   -0.21873E-05   -0.19656E-05  4044   0.561E-02    0.221E-02
DAV:  11    -0.206661788806E+03   -0.45492E-05   -0.82035E-06  2860   0.247E-02    0.903E-03
DAV:  12    -0.206661795024E+03   -0.62182E-05   -0.28590E-06  1940   0.111E-02    0.300E-03
DAV:  13    -0.206661799066E+03   -0.40413E-05   -0.91488E-07  1788   0.889E-03    0.151E-03
DAV:  14    -0.206661802597E+03   -0.35315E-05   -0.49280E-07  1740   0.638E-03    0.226E-03
DAV:  15    -0.206661806376E+03   -0.37788E-05   -0.37781E-07  1796   0.381E-03    0.211E-03
DAV:  16    -0.206661809814E+03   -0.34383E-05   -0.37466E-07  1772   0.401E-03    0.154E-03
DAV:  17    -0.206661811825E+03   -0.20104E-05   -0.28917E-07  1756   0.341E-03    0.929E-04
DAV:  18    -0.206661812780E+03   -0.95530E-06   -0.19163E-07  1604   0.207E-03
  14 F= -.20666181E+03 E0= -.20658869E+03  d E =-.696418E+01
       N       E                     dE             d eps       ncg     rms          rms(c)
DAV:   1    -0.205473041736E+03    0.11888E+01   -0.13015E+03  3582   0.836E+01    0.119E+01
DAV:   2    -0.209553518588E+03   -0.40805E+01   -0.43436E+01  4164   0.355E+01    0.125E+01
DAV:   3    -0.221248429392E+03   -0.11695E+02   -0.59795E+01  4095   0.416E+01    0.371E+01
DAV:   4    -0.208445325716E+03    0.12803E+02   -0.23205E+00  4018   0.192E+01    0.628E+00
DAV:   5    -0.208423947084E+03    0.21379E-01   -0.10003E+00  4346   0.156E+01    0.445E+00
DAV:   6    -0.208445004294E+03   -0.21057E-01   -0.49897E-01  3706   0.994E+00    0.384E+00
DAV:   7    -0.208787133104E+03   -0.34213E+00   -0.30165E+00  3732   0.492E+00    0.127E+01
DAV:   8    -0.208392897994E+03    0.39424E+00   -0.16079E+00  5276   0.274E+00    0.239E+00
DAV:   9    -0.208416190459E+03   -0.23292E-01   -0.10251E-01  3538   0.527E+00    0.174E+00
DAV:  10    -0.208400704844E+03    0.15486E-01   -0.10008E-01  3744   0.474E+00    0.108E+00
DAV:  11    -0.208399693593E+03    0.10113E-02   -0.50576E-02  4181   0.159E+00    0.527E-01
DAV:  12    -0.208402243839E+03   -0.25502E-02   -0.87505E-03  3628   0.612E-01    0.405E-01
DAV:  13    -0.208402343216E+03   -0.99378E-04   -0.24961E-03  3468   0.536E-01    0.276E-01
DAV:  14    -0.208402101069E+03    0.24215E-03   -0.19281E-03  3636   0.456E-01    0.870E-02
DAV:  15    -0.208402137606E+03   -0.36537E-04   -0.44735E-04  3876   0.193E-01    0.793E-02
DAV:  16    -0.208402119133E+03    0.18473E-04   -0.25234E-04  3468   0.171E-01    0.223E-02
DAV:  17    -0.208402161388E+03   -0.42255E-04   -0.70163E-05  3500   0.111E-01    0.281E-02
DAV:  18    -0.208402161594E+03   -0.20617E-06   -0.41017E-05  3308   0.639E-02    0.101E-02
DAV:  19    -0.208402168085E+03   -0.64904E-05   -0.71993E-06  3143   0.167E-02    0.813E-03
DAV:  20    -0.208402169604E+03   -0.15192E-05   -0.25319E-06  1948   0.146E-02    0.250E-03
DAV:  21    -0.208402171242E+03   -0.16385E-05   -0.10246E-06  1812   0.105E-02    0.205E-03
DAV:  22    -0.208402173268E+03   -0.20255E-05   -0.55675E-07  1804   0.619E-03    0.161E-03
DAV:  23    -0.208402174393E+03   -0.11252E-05   -0.34031E-07  1772   0.395E-03    0.851E-04
DAV:  24    -0.208402175299E+03   -0.90559E-06   -0.17640E-07  1764   0.298E-03
  15 F= -.20840218E+03 E0= -.20833752E+03  d E =-.174036E+01
       N       E                     dE             d eps       ncg     rms          rms(c)
DAV:   1    -0.208401932294E+03    0.24210E-03   -0.65159E+01  2850   0.162E+01    0.115E+00
DAV:   2    -0.208668572016E+03   -0.26664E+00   -0.24510E+00  4314   0.633E+00    0.533E+00
DAV:   3    -0.208586793387E+03    0.81779E-01   -0.11389E+00  3994   0.218E+00    0.270E+00
DAV:   4    -0.208559153249E+03    0.27640E-01   -0.19010E-01  3531   0.434E+00    0.701E-01
DAV:   5    -0.208559694969E+03   -0.54172E-03   -0.27725E-02  4460   0.215E+00    0.109E+00
DAV:   6    -0.208569322793E+03   -0.96278E-02   -0.16750E-01  4108   0.429E-01    0.248E+00
DAV:   7    -0.208557175792E+03    0.12147E-01   -0.10395E-01  4318   0.259E+00    0.631E-01
DAV:   8    -0.208554703670E+03    0.24721E-02   -0.11660E-02  4420   0.209E+00    0.159E-01
DAV:   9    -0.208554856993E+03   -0.15332E-03   -0.25561E-03  4575   0.440E-01    0.569E-02
DAV:  10    -0.208555002461E+03   -0.14547E-03   -0.89614E-04  3442   0.327E-01    0.499E-02
DAV:  11    -0.208555001128E+03    0.13333E-05   -0.22929E-04  3364   0.177E-01    0.287E-02
DAV:  12    -0.208555000682E+03    0.44541E-06   -0.53717E-05  5271   0.696E-02    0.185E-02
DAV:  13    -0.208555001860E+03   -0.11779E-05   -0.22803E-05  3772   0.471E-02    0.101E-02
DAV:  14    -0.208555003175E+03   -0.13151E-05   -0.86889E-06  3140   0.339E-02    0.445E-03
DAV:  15    -0.208555003984E+03   -0.80862E-06   -0.16337E-06  1764   0.163E-02
  16 F= -.20855500E+03 E0= -.20848767E+03  d E =-.189319E+01
       N       E                     dE             d eps       ncg     rms          rms(c)
DAV:   1    -0.204287852848E+03    0.42672E+01   -0.37361E+02  2850   0.358E+01    0.641E+00
DAV:   2    -0.206266145797E+03   -0.19783E+01   -0.22605E+01  3868   0.101E+01    0.113E+01
DAV:   3    -0.207325676401E+03   -0.10595E+01   -0.22463E+01  4532   0.818E+00    0.221E+01
DAV:   4    -0.205455516234E+03    0.18702E+01   -0.11660E+01  4034   0.167E+01    0.550E+00
DAV:   5    -0.205562588042E+03   -0.10707E+00   -0.15568E+00  3812   0.152E+01    0.761E+00
DAV:   6    -0.205707672282E+03   -0.14508E+00   -0.54344E+00  4284   0.207E+00    0.102E+01
DAV:   7    -0.205379933237E+03    0.32774E+00   -0.18839E+00  4084   0.113E+01    0.264E+00
DAV:   8    -0.205344044291E+03    0.35889E-01   -0.37434E-01  4076   0.851E+00    0.891E-01
DAV:   9    -0.205341283307E+03    0.27610E-02   -0.51214E-02  4708   0.372E+00    0.609E-01
DAV:  10    -0.205342168119E+03   -0.88481E-03   -0.15430E-02  4156   0.865E-01    0.564E-01
DAV:  11    -0.205341567307E+03    0.60081E-03   -0.59975E-03  3668   0.936E-01    0.333E-01
DAV:  12    -0.205341288870E+03    0.27844E-03   -0.23092E-03  3868   0.619E-01    0.106E-01
DAV:  13    -0.205341456494E+03   -0.16762E-03   -0.59344E-04  4620   0.170E-01    0.304E-02
DAV:  14    -0.205341566078E+03   -0.10958E-03   -0.19735E-04  3484   0.152E-01    0.274E-02
DAV:  15    -0.205341621470E+03   -0.55392E-04   -0.57883E-05  3540   0.818E-02    0.101E-02
DAV:  16    -0.205341698501E+03   -0.77032E-04   -0.20494E-05  4132   0.369E-02    0.130E-02
DAV:  17    -0.205341743148E+03   -0.44647E-04   -0.88549E-06  3612   0.317E-02    0.785E-03
DAV:  18    -0.205341784929E+03   -0.41781E-04   -0.39075E-06  2476   0.208E-02    0.531E-03
DAV:  19    -0.205341818587E+03   -0.33658E-04   -0.25683E-06  2356   0.165E-02    0.250E-03
DAV:  20    -0.205341843295E+03   -0.24708E-04   -0.16280E-06  2172   0.115E-02    0.272E-03
DAV:  21    -0.205341862134E+03   -0.18839E-04   -0.13441E-06  2116   0.890E-03    0.100E-03
DAV:  22    -0.205341872018E+03   -0.98840E-05   -0.74354E-07  1932   0.370E-03    0.716E-04
DAV:  23    -0.205341876454E+03   -0.44362E-05   -0.37106E-07  1764   0.488E-03    0.694E-04
DAV:  24    -0.205341879619E+03   -0.31652E-05   -0.24058E-07  1748   0.295E-03    0.723E-04
DAV:  25    -0.205341882555E+03   -0.29359E-05   -0.20019E-07  1812   0.265E-03    0.535E-04
DAV:  26    -0.205341883307E+03   -0.75193E-06   -0.11332E-07  1612   0.190E-03
  17 F= -.20534188E+03 E0= -.20527663E+03  d E =0.321312E+01
       N       E                     dE             d eps       ncg     rms          rms(c)
DAV:   1    -0.208192856161E+03   -0.28510E+01   -0.24674E+02  2850   0.296E+01    0.533E+00
DAV:   2    -0.210773997822E+03   -0.25811E+01   -0.21952E+01  4684   0.168E+01    0.232E+01
DAV:   3    -0.209172482466E+03    0.16015E+01   -0.15892E+01  4652   0.624E+00    0.751E+00
DAV:   4    -0.208833814983E+03    0.33867E+00   -0.34639E+00  3743   0.237E+01    0.303E+00
DAV:   5    -0.208739939434E+03    0.93876E-01   -0.43660E-01  4028   0.157E+01    0.215E+00
DAV:   6    -0.209472545205E+03   -0.73261E+00   -0.51907E+00  4804   0.691E+00    0.176E+01
DAV:   7    -0.208681461836E+03    0.79108E+00   -0.28833E+00  4324   0.240E+00    0.207E+00
DAV:   8    -0.208710491222E+03   -0.29029E-01   -0.19933E-01  3668   0.673E+00    0.991E-01
DAV:   9    -0.208712137614E+03   -0.16464E-02   -0.38144E-02  4316   0.216E+00    0.261E-01
DAV:  10    -0.208712976675E+03   -0.83906E-03   -0.73269E-03  4460   0.818E-01    0.169E-01
DAV:  11    -0.208713412239E+03   -0.43556E-03   -0.39575E-03  3596   0.519E-01    0.162E-01
DAV:  12    -0.208713557589E+03   -0.14535E-03   -0.10932E-03  3380   0.429E-01    0.129E-01
DAV:  13    -0.208713592385E+03   -0.34796E-04   -0.21237E-04  3868   0.175E-01    0.829E-02
DAV:  14    -0.208713684627E+03   -0.92242E-04   -0.23782E-04  3532   0.103E-01    0.226E-02
DAV:  15    -0.208713737576E+03   -0.52950E-04   -0.33690E-05  3908   0.450E-02    0.189E-02
DAV:  16    -0.208713811013E+03   -0.73437E-04   -0.23709E-05  3484   0.511E-02    0.160E-02
DAV:  17    -0.208713846846E+03   -0.35833E-04   -0.78235E-06  3572   0.299E-02    0.113E-02
DAV:  18    -0.208713883645E+03   -0.36800E-04   -0.53014E-06  2996   0.208E-02    0.574E-03
DAV:  19    -0.208713916803E+03   -0.33158E-04   -0.36512E-06  2524   0.935E-03    0.271E-03
DAV:  20    -0.208713934580E+03   -0.17777E-04   -0.15772E-06  2252   0.108E-02    0.423E-03
DAV:  21    -0.208713946875E+03   -0.12295E-04   -0.10177E-06  2180   0.713E-03    0.352E-03
DAV:  22    -0.208713954974E+03   -0.80997E-05   -0.11263E-06  2172   0.406E-03    0.915E-04
DAV:  23    -0.208713957417E+03   -0.24426E-05   -0.29028E-07  1828   0.352E-03    0.826E-04
DAV:  24    -0.208713959855E+03   -0.24382E-05   -0.23558E-07  1820   0.312E-03    0.341E-04
DAV:  25    -0.208713961529E+03   -0.16738E-05   -0.21869E-07  1828   0.173E-03    0.460E-04
DAV:  26    -0.208713962278E+03   -0.74884E-06   -0.12374E-07  1628   0.187E-03
  18 F= -.20871396E+03 E0= -.20864708E+03  d E =-.158958E+00
       N       E                     dE             d eps       ncg     rms          rms(c)
DAV:   1    -0.208627245850E+03    0.86716E-01   -0.86525E+01  2850   0.171E+01    0.258E+00
DAV:   2    -0.209380919642E+03   -0.75367E+00   -0.74503E+00  4540   0.736E+00    0.919E+00
DAV:   3    -0.208946311994E+03    0.43461E+00   -0.64721E+00  4402   0.450E+00    0.568E+00
DAV:   4    -0.208840501773E+03    0.10581E+00   -0.12149E+00  3740   0.949E+00    0.249E+00
DAV:   5    -0.208817277479E+03    0.23224E-01   -0.12766E-01  3948   0.473E+00    0.145E+00
DAV:   6    -0.208980793102E+03   -0.16352E+00   -0.13754E+00  4524   0.131E+00    0.808E+00
DAV:   7    -0.208799941332E+03    0.18085E+00   -0.91398E-01  5052   0.166E+00    0.654E-01
DAV:   8    -0.208812044253E+03   -0.12103E-01   -0.19610E-02  3807   0.277E+00    0.652E-01
DAV:   9    -0.208810828090E+03    0.12162E-02   -0.94004E-03  4023   0.131E+00    0.255E-01
DAV:  10    -0.208811064098E+03   -0.23601E-03   -0.25747E-03  4196   0.350E-01    0.107E-01
DAV:  11    -0.208811134992E+03   -0.70894E-04   -0.56923E-04  3428   0.224E-01    0.641E-02
DAV:  12    -0.208811129077E+03    0.59148E-05   -0.21293E-04  3932   0.225E-01    0.338E-02
DAV:  13    -0.208811133416E+03   -0.43388E-05   -0.85562E-05  4620   0.937E-02    0.197E-02
DAV:  14    -0.208811137896E+03   -0.44795E-05   -0.39088E-05  3412   0.724E-02    0.115E-02
DAV:  15    -0.208811139539E+03   -0.16437E-05   -0.92834E-06  3132   0.264E-02    0.377E-03
DAV:  16    -0.208811142164E+03   -0.26248E-05   -0.13137E-06  1828   0.136E-02    0.443E-03
DAV:  17    -0.208811143763E+03   -0.15993E-05   -0.12460E-06  1804   0.127E-02    0.239E-03
DAV:  18    -0.208811145050E+03   -0.12866E-05   -0.50113E-07  1716   0.785E-03    0.236E-03
DAV:  19    -0.208811146083E+03   -0.10331E-05   -0.45562E-07  1748   0.438E-03    0.911E-04
DAV:  20    -0.208811146699E+03   -0.61642E-06   -0.20644E-07  1580   0.278E-03
  19 F= -.20881115E+03 E0= -.20874544E+03  d E =-.971844E-01
       N       E                     dE             d eps       ncg     rms          rms(c)
DAV:   1    -0.208850421818E+03   -0.39276E-01   -0.11377E+01  2850   0.625E+00    0.967E-01
DAV:   2    -0.209025720572E+03   -0.17530E+00   -0.11981E+00  4754   0.369E+00    0.648E+00
DAV:   3    -0.208871877587E+03    0.15384E+00   -0.10003E+00  4578   0.159E+00    0.132E+00
DAV:   4    -0.208869839872E+03    0.20377E-02   -0.93050E-02  3590   0.464E+00    0.545E-01
DAV:   5    -0.208870204549E+03   -0.36468E-03   -0.29765E-02  4177   0.226E+00    0.104E+00
DAV:   6    -0.208873218521E+03   -0.30140E-02   -0.10227E-01  4250   0.295E-01    0.158E+00
DAV:   7    -0.208867654556E+03    0.55640E-02   -0.39759E-02  3936   0.146E+00    0.223E-01
DAV:   8    -0.208867885627E+03   -0.23107E-03   -0.37359E-03  4561   0.106E+00    0.130E-01
DAV:   9    -0.208867829062E+03    0.56566E-04   -0.82415E-04  4866   0.348E-01    0.409E-02
DAV:  10    -0.208867838720E+03   -0.96582E-05   -0.14120E-04  3580   0.140E-01    0.379E-02
DAV:  11    -0.208867842355E+03   -0.36347E-05   -0.78858E-05  3703   0.104E-01    0.258E-02
DAV:  12    -0.208867843350E+03   -0.99553E-06   -0.22857E-05  3879   0.457E-02    0.932E-03
DAV:  13    -0.208867844441E+03   -0.10903E-05   -0.42069E-06  2431   0.203E-02    0.360E-03
DAV:  14    -0.208867844817E+03   -0.37678E-06   -0.14426E-06  1628   0.135E-02
  20 F= -.20886784E+03 E0= -.20880183E+03  d E =-.153883E+00
       N       E                     dE             d eps       ncg     rms          rms(c)
DAV:   1    -0.209005553154E+03   -0.13771E+00   -0.26162E+01  2850   0.913E+00    0.102E+00
DAV:   2    -0.209208470828E+03   -0.20292E+00   -0.17629E+00  4456   0.317E+00    0.515E+00
DAV:   3    -0.209057441929E+03    0.15103E+00   -0.12997E+00  4347   0.269E+00    0.998E-01
DAV:   4    -0.209063320116E+03   -0.58782E-02   -0.28589E-02  3835   0.866E-01    0.499E-01
DAV:   5    -0.209066135542E+03   -0.28154E-02   -0.29531E-02  3624   0.186E+00    0.112E+00
DAV:   6    -0.209075504162E+03   -0.93686E-02   -0.18952E-01  4386   0.466E-01    0.243E+00
DAV:   7    -0.209060852008E+03    0.14652E-01   -0.93976E-02  3997   0.161E+00    0.203E-01
DAV:   8    -0.209062186315E+03   -0.13343E-02   -0.35564E-03  4518   0.101E+00    0.961E-02
DAV:   9    -0.209062310797E+03   -0.12448E-03   -0.71046E-04  5211   0.468E-01    0.629E-02
DAV:  10    -0.209062323998E+03   -0.13201E-04   -0.22032E-04  4036   0.206E-01    0.651E-02
DAV:  11    -0.209062317019E+03    0.69785E-05   -0.96201E-05  3695   0.108E-01    0.258E-02
DAV:  12    -0.209062325651E+03   -0.86319E-05   -0.48452E-05  3412   0.741E-02    0.105E-02
DAV:  13    -0.209062332150E+03   -0.64987E-05   -0.14811E-05  3260   0.361E-02    0.948E-03
DAV:  14    -0.209062334700E+03   -0.25503E-05   -0.25948E-06  1828   0.178E-02    0.492E-03
DAV:  15    -0.209062338062E+03   -0.33614E-05   -0.13144E-06  1852   0.878E-03    0.194E-03
DAV:  16    -0.209062341134E+03   -0.30724E-05   -0.71497E-07  1756   0.799E-03    0.189E-03
DAV:  17    -0.209062342520E+03   -0.13860E-05   -0.44330E-07  1620   0.570E-03    0.130E-03
DAV:  18    -0.209062344182E+03   -0.16617E-05   -0.28076E-07  1764   0.278E-03    0.611E-04
DAV:  19    -0.209062345858E+03   -0.16768E-05   -0.23111E-07  1676   0.300E-03    0.614E-04
DAV:  20    -0.209062347712E+03   -0.18534E-05   -0.22070E-07  1788   0.256E-03    0.490E-04
DAV:  21    -0.209062348206E+03   -0.49372E-06   -0.11405E-07  1604   0.184E-03
  21 F= -.20906235E+03 E0= -.20899793E+03  d E =-.194503E+00
       N       E                     dE             d eps       ncg     rms          rms(c)
DAV:   1    -0.208888829020E+03    0.17352E+00   -0.13786E+02  2850   0.211E+01    0.264E+00
DAV:   2    -0.210011314588E+03   -0.11225E+01   -0.95786E+00  4490   0.860E+00    0.116E+01
DAV:   3    -0.209301799253E+03    0.70952E+00   -0.10031E+01  4540   0.782E+00    0.444E+00
DAV:   4    -0.209229531442E+03    0.72268E-01   -0.54171E-01  4018   0.233E+00    0.166E+00
DAV:   5    -0.209239758933E+03   -0.10227E-01   -0.17464E-01  3914   0.239E+00    0.274E+00
DAV:   6    -0.209238206470E+03    0.15525E-02   -0.42716E-01  3524   0.587E-01    0.260E+00
DAV:   7    -0.209225897093E+03    0.12309E-01   -0.14789E-01  3667   0.376E+00    0.909E-01
DAV:   8    -0.209219645861E+03    0.62512E-02   -0.21026E-02  3894   0.397E+00    0.509E-01
DAV:   9    -0.209219985453E+03   -0.33959E-03   -0.45845E-03  5206   0.158E+00    0.469E-01
DAV:  10    -0.209219386237E+03    0.59922E-03   -0.45742E-03  4346   0.703E-01    0.122E-01
DAV:  11    -0.209219990660E+03   -0.60442E-03   -0.12963E-03  3732   0.317E-01    0.108E-01
DAV:  12    -0.209220099015E+03   -0.10835E-03   -0.33609E-04  3495   0.193E-01    0.538E-02
DAV:  13    -0.209220115815E+03   -0.16800E-04   -0.14517E-04  3740   0.117E-01    0.225E-02
DAV:  14    -0.209220116754E+03   -0.93906E-06   -0.25573E-05  3796   0.576E-02    0.140E-02
DAV:  15    -0.209220127785E+03   -0.11031E-04   -0.11658E-05  3348   0.395E-02    0.858E-03
DAV:  16    -0.209220138400E+03   -0.10615E-04   -0.28163E-06  2156   0.140E-02    0.745E-03
DAV:  17    -0.209220149216E+03   -0.10816E-04   -0.35655E-06  2628   0.161E-02    0.323E-03
DAV:  18    -0.209220153779E+03   -0.45635E-05   -0.10109E-06  1820   0.127E-02    0.184E-03
DAV:  19    -0.209220157676E+03   -0.38966E-05   -0.48619E-07  1732   0.439E-03    0.177E-03
DAV:  20    -0.209220163292E+03   -0.56156E-05   -0.59157E-07  1842   0.501E-03    0.126E-03
DAV:  21    -0.209220166247E+03   -0.29549E-05   -0.33627E-07  1794   0.428E-03    0.118E-03
DAV:  22    -0.209220169659E+03   -0.34121E-05   -0.40225E-07  1770   0.255E-03    0.523E-04
DAV:  23    -0.209220170838E+03   -0.11798E-05   -0.16857E-07  1732   0.246E-03    0.418E-04
DAV:  24    -0.209220171855E+03   -0.10169E-05   -0.13074E-07  1676   0.200E-03    0.272E-04
DAV:  25    -0.209220172728E+03   -0.87247E-06   -0.10334E-07  1674   0.120E-03
  22 F= -.20922017E+03 E0= -.20915890E+03  d E =-.352328E+00
       N       E                     dE             d eps       ncg     rms          rms(c)
DAV:   1    -0.209290534970E+03   -0.70363E-01   -0.39620E+00  2850   0.355E+00    0.385E-01
DAV:   2    -0.209324100054E+03   -0.33565E-01   -0.25172E-01  4535   0.128E+00    0.216E+00
DAV:   3    -0.209297168160E+03    0.26932E-01   -0.18089E-01  4330   0.112E+00    0.296E-01
DAV:   4    -0.209298668451E+03   -0.15003E-02   -0.39803E-03  3722   0.327E-01    0.190E-01
DAV:   5    -0.209302122904E+03   -0.34545E-02   -0.25913E-02  3642   0.534E-01    0.116E+00
DAV:   6    -0.209298645223E+03    0.34777E-02   -0.30544E-02  5194   0.214E-01    0.233E-01
DAV:   7    -0.209298642633E+03    0.25891E-05   -0.18486E-03  3618   0.705E-01    0.440E-02
DAV:   8    -0.209298657747E+03   -0.15113E-04   -0.35060E-04  4674   0.299E-01    0.268E-02
DAV:   9    -0.209298653946E+03    0.38004E-05   -0.81965E-05  5002   0.197E-01    0.151E-02
DAV:  10    -0.209298652950E+03    0.99587E-06   -0.21210E-05  3922   0.709E-02    0.124E-02
DAV:  11    -0.209298653042E+03   -0.91677E-07   -0.11243E-05  3436   0.287E-02    0.387E-03
DAV:  12    -0.209298653410E+03   -0.36781E-06   -0.46522E-06  2639   0.258E-02
  23 F= -.20929865E+03 E0= -.20923778E+03  d E =-.784807E-01
       N       E                     dE             d eps       ncg     rms          rms(c)
DAV:   1    -0.209430258239E+03   -0.13161E+00   -0.35577E+01  2850   0.107E+01    0.123E+00
DAV:   2    -0.209759925041E+03   -0.32967E+00   -0.27509E+00  4580   0.433E+00    0.651E+00
DAV:   3    -0.209502982703E+03    0.25694E+00   -0.22856E+00  4487   0.374E+00    0.107E+00
DAV:   4    -0.209507149105E+03   -0.41664E-02   -0.52346E-02  4034   0.130E+00    0.606E-01
DAV:   5    -0.209511128508E+03   -0.39794E-02   -0.34895E-02  3594   0.224E+00    0.111E+00
DAV:   6    -0.209520218755E+03   -0.90902E-02   -0.16962E-01  4172   0.572E-01    0.216E+00
DAV:   7    -0.209505672792E+03    0.14546E-01   -0.81933E-02  3930   0.177E+00    0.235E-01
DAV:   8    -0.209506329454E+03   -0.65666E-03   -0.46835E-03  4266   0.119E+00    0.875E-02
DAV:   9    -0.209506452424E+03   -0.12297E-03   -0.10574E-03  5178   0.562E-01    0.511E-02
DAV:  10    -0.209506461717E+03   -0.92924E-05   -0.31837E-04  4018   0.233E-01    0.510E-02
DAV:  11    -0.209506453997E+03    0.77198E-05   -0.93996E-05  3716   0.132E-01    0.291E-02
DAV:  12    -0.209506455303E+03   -0.13062E-05   -0.69770E-05  3644   0.716E-02    0.141E-02
DAV:  13    -0.209506458045E+03   -0.27414E-05   -0.25312E-05  3332   0.482E-02    0.103E-02
DAV:  14    -0.209506458358E+03   -0.31304E-06   -0.37078E-06  2180   0.175E-02
  24 F= -.20950646E+03 E0= -.20944667E+03  d E =-.286286E+00
       N       E                     dE             d eps       ncg     rms          rms(c)
DAV:   1    -0.209471397882E+03    0.35060E-01   -0.14148E+02  2850   0.214E+01    0.278E+00
DAV:   2    -0.211060456312E+03   -0.15891E+01   -0.11568E+01  4596   0.990E+00    0.151E+01
DAV:   3    -0.209855980612E+03    0.12045E+01   -0.14437E+01  4644   0.916E+00    0.399E+00
DAV:   4    -0.209817148741E+03    0.38832E-01   -0.66804E-01  4143   0.276E+00    0.171E+00
DAV:   5    -0.209812362382E+03    0.47864E-02   -0.79390E-02  3884   0.150E+00    0.155E+00
DAV:   6    -0.209827277514E+03   -0.14915E-01   -0.19724E-01  3556   0.619E-01    0.258E+00
DAV:   7    -0.209812650345E+03    0.14627E-01   -0.12678E-01  3677   0.294E+00    0.767E-01
DAV:   8    -0.209807825633E+03    0.48247E-02   -0.24718E-02  3750   0.394E+00    0.368E-01
DAV:   9    -0.209807946571E+03   -0.12094E-03   -0.64222E-03  5102   0.154E+00    0.458E-01
DAV:  10    -0.209806815193E+03    0.11314E-02   -0.35997E-03  4328   0.761E-01    0.195E-01
DAV:  11    -0.209807240195E+03   -0.42500E-03   -0.13851E-03  3743   0.332E-01    0.735E-02
DAV:  12    -0.209807370433E+03   -0.13024E-03   -0.31983E-04  3530   0.203E-01    0.349E-02
DAV:  13    -0.209807392491E+03   -0.22058E-04   -0.79001E-05  4004   0.961E-02    0.285E-02
DAV:  14    -0.209807396699E+03   -0.42079E-05   -0.31647E-05  3444   0.765E-02    0.157E-02
DAV:  15    -0.209807398044E+03   -0.13454E-05   -0.11684E-05  3220   0.368E-02    0.936E-03
DAV:  16    -0.209807400347E+03   -0.23028E-05   -0.42257E-06  2340   0.149E-02    0.605E-03
DAV:  17    -0.209807402046E+03   -0.16994E-05   -0.17242E-06  1796   0.132E-02    0.307E-03
DAV:  18    -0.209807403037E+03   -0.99099E-06   -0.63376E-07  1660   0.682E-03
  25 F= -.20980740E+03 E0= -.20974932E+03  d E =-.587230E+00
       N       E                     dE             d eps       ncg     rms          rms(c)
DAV:   1    -0.208312666831E+03    0.14947E+01   -0.55916E+02  2850   0.433E+01    0.688E+00
DAV:   2    -0.214319682563E+03   -0.60070E+01   -0.42871E+01  4695   0.230E+01    0.179E+01
DAV:   3    -0.210587860041E+03    0.37318E+01   -0.43191E+00  4855   0.249E+01    0.102E+01
DAV:   4    -0.210242704658E+03    0.34516E+00   -0.62550E+00  4295   0.711E+00    0.669E+00
DAV:   5    -0.210082467231E+03    0.16024E+00   -0.42153E-01  4623   0.480E+00    0.423E+00
DAV:   6    -0.210064274014E+03    0.18193E-01   -0.14363E-01  3399   0.646E+00    0.397E+00
DAV:   7    -0.210127330739E+03   -0.63057E-01   -0.30419E-01  3644   0.566E+00    0.453E+00
DAV:   8    -0.210071077306E+03    0.56253E-01   -0.45935E-01  4815   0.298E+00    0.294E+00
DAV:   9    -0.210028824730E+03    0.42253E-01   -0.43135E-01  3872   0.611E+00    0.249E+00
DAV:  10    -0.210013277662E+03    0.15547E-01   -0.49946E-02  4271   0.141E+00    0.206E+00
DAV:  11    -0.210016516386E+03   -0.32387E-02   -0.21681E-02  3898   0.103E+00    0.157E+00
DAV:  12    -0.210018175772E+03   -0.16594E-02   -0.84198E-03  3930   0.841E-01    0.109E+00
DAV:  13    -0.210015307464E+03    0.28683E-02   -0.20506E-02  4642   0.617E-01    0.189E-01
DAV:  14    -0.210016869723E+03   -0.15623E-02   -0.22119E-03  4239   0.276E-01    0.680E-02
DAV:  15    -0.210016973827E+03   -0.10410E-03   -0.49270E-04  3676   0.186E-01    0.432E-02
DAV:  16    -0.210017010054E+03   -0.36227E-04   -0.27416E-04  3788   0.155E-01    0.758E-02
DAV:  17    -0.210016985329E+03    0.24724E-04   -0.62459E-05  4132   0.798E-02    0.432E-02
DAV:  18    -0.210016984475E+03    0.85420E-06   -0.27103E-05  3588   0.467E-02    0.240E-02
DAV:  19    -0.210016988263E+03   -0.37875E-05   -0.10594E-05  3516   0.279E-02    0.110E-02
DAV:  20    -0.210016994013E+03   -0.57503E-05   -0.70937E-06  2706   0.164E-02    0.585E-03
DAV:  21    -0.210016996428E+03   -0.24153E-05   -0.22038E-06  2244   0.108E-02    0.347E-03
DAV:  22    -0.210016997681E+03   -0.12523E-05   -0.62379E-07  1679   0.811E-03    0.205E-03
DAV:  23    -0.210016998744E+03   -0.10636E-05   -0.31419E-07  1679   0.329E-03    0.103E-03
DAV:  24    -0.210017000209E+03   -0.14650E-05   -0.20434E-07  1783   0.342E-03    0.745E-04
DAV:  25    -0.210017001044E+03   -0.83499E-06   -0.13445E-07  1639   0.289E-03
  26 F= -.21001700E+03 E0= -.20996284E+03  d E =-.796828E+00
       N       E                     dE             d eps       ncg     rms          rms(c)
DAV:   1    -0.210142026725E+03   -0.12503E+00   -0.70176E+01  2850   0.148E+01    0.190E+00
DAV:   2    -0.210925638248E+03   -0.78361E+00   -0.60870E+00  4274   0.509E+00    0.105E+01
DAV:   3    -0.210301723011E+03    0.62392E+00   -0.69039E+00  4397   0.591E+00    0.181E+00
DAV:   4    -0.210308158920E+03   -0.64359E-02   -0.24830E-01  4170   0.333E+00    0.119E+00
DAV:   5    -0.210301312358E+03    0.68466E-02   -0.27899E-02  4232   0.180E+00    0.800E-01
DAV:   6    -0.210312401248E+03   -0.11089E-01   -0.30551E-02  3608   0.358E+00    0.107E+00
DAV:   7    -0.210316630533E+03   -0.42293E-02   -0.81413E-02  3954   0.169E+00    0.164E+00
DAV:   8    -0.210300563322E+03    0.16067E-01   -0.38115E-02  4048   0.197E+00    0.177E-01
DAV:   9    -0.210301583836E+03   -0.10205E-02   -0.71454E-03  4128   0.493E-01    0.149E-01
DAV:  10    -0.210301567110E+03    0.16726E-04   -0.10572E-03  3540   0.353E-01    0.129E-01
DAV:  11    -0.210301589030E+03   -0.21920E-04   -0.27181E-04  3580   0.197E-01    0.104E-01
DAV:  12    -0.210301575761E+03    0.13270E-04   -0.28194E-04  3812   0.157E-01    0.254E-02
DAV:  13    -0.210301601580E+03   -0.25819E-04   -0.87659E-05  4252   0.757E-02    0.137E-02
DAV:  14    -0.210301604254E+03   -0.26743E-05   -0.24044E-05  3372   0.657E-02    0.122E-02
DAV:  15    -0.210301605517E+03   -0.12628E-05   -0.63336E-06  3428   0.192E-02    0.605E-03
DAV:  16    -0.210301607604E+03   -0.20873E-05   -0.22601E-06  1876   0.184E-02    0.327E-03
DAV:  17    -0.210301608631E+03   -0.10270E-05   -0.76663E-07  1644   0.910E-03    0.226E-03
DAV:  18    -0.210301610022E+03   -0.13906E-05   -0.56263E-07  1804   0.731E-03    0.896E-04
DAV:  19    -0.210301611003E+03   -0.98185E-06   -0.30870E-07  1644   0.280E-03
  27 F= -.21030161E+03 E0= -.21025125E+03  d E =-.284610E+00
       N       E                     dE             d eps       ncg     rms          rms(c)
DAV:   1    -0.208700607826E+03    0.16010E+01   -0.62665E+02  2850   0.455E+01    0.688E+00
DAV:   2    -0.214736616942E+03   -0.60360E+01   -0.53045E+01  4405   0.192E+01    0.191E+01
DAV:   3    -0.211044577265E+03    0.36920E+01   -0.15917E+01  4748   0.219E+01    0.627E+00
DAV:   4    -0.211214031379E+03   -0.16945E+00   -0.86667E+00  4607   0.115E+01    0.763E+00
DAV:   5    -0.210928976832E+03    0.28505E+00   -0.68199E-01  3999   0.337E+00    0.470E+00
DAV:   6    -0.210878651863E+03    0.50325E-01   -0.15379E-01  4084   0.219E+00    0.333E+00
DAV:   7    -0.210868983617E+03    0.96682E-02   -0.77368E-01  3898   0.855E+00    0.215E+00
DAV:   8    -0.210867125382E+03    0.18582E-02   -0.13263E-01  4266   0.580E+00    0.276E+00
DAV:   9    -0.210847032737E+03    0.20093E-01   -0.68322E-02  4340   0.855E-01    0.189E+00
DAV:  10    -0.210837708710E+03    0.93240E-02   -0.39601E-02  4066   0.139E+00    0.764E-01
DAV:  11    -0.210839770542E+03   -0.20618E-02   -0.94711E-03  4146   0.144E+00    0.445E-01
DAV:  12    -0.210839823140E+03   -0.52598E-04   -0.48788E-03  4348   0.579E-01    0.205E-01
DAV:  13    -0.210840002910E+03   -0.17977E-03   -0.19102E-03  3879   0.362E-01    0.792E-02
DAV:  14    -0.210840196607E+03   -0.19370E-03   -0.50502E-04  3956   0.225E-01    0.817E-02
DAV:  15    -0.210840188923E+03    0.76837E-05   -0.13329E-04  3802   0.162E-01    0.547E-02
DAV:  16    -0.210840191246E+03   -0.23225E-05   -0.10392E-04  4220   0.596E-02    0.326E-02
DAV:  17    -0.210840203116E+03   -0.11870E-04   -0.19107E-05  3767   0.352E-02    0.191E-02
DAV:  18    -0.210840214762E+03   -0.11646E-04   -0.11833E-05  3695   0.279E-02    0.108E-02
DAV:  19    -0.210840222182E+03   -0.74197E-05   -0.25758E-06  2287   0.167E-02    0.699E-03
DAV:  20    -0.210840228709E+03   -0.65267E-05   -0.16132E-06  2199   0.808E-03    0.478E-03
DAV:  21    -0.210840233259E+03   -0.45500E-05   -0.98185E-07  1871   0.657E-03    0.175E-03
DAV:  22    -0.210840236229E+03   -0.29706E-05   -0.51674E-07  1775   0.658E-03    0.983E-04
DAV:  23    -0.210840239018E+03   -0.27887E-05   -0.34698E-07  1847   0.325E-03    0.111E-03
DAV:  24    -0.210840241399E+03   -0.23813E-05   -0.27666E-07  1799   0.377E-03    0.113E-03
DAV:  25    -0.210840242304E+03   -0.90426E-06   -0.16541E-07  1684   0.232E-03
  28 F= -.21084024E+03 E0= -.21079235E+03  d E =-.823241E+00
       N       E                     dE             d eps       ncg     rms          rms(c)
DAV:   1    -0.210555350271E+03    0.28489E+00   -0.12370E+02  2850   0.201E+01    0.267E+00
DAV:   2    -0.211807711167E+03   -0.12524E+01   -0.12889E+01  4618   0.833E+00    0.786E+00
DAV:   3    -0.210847050947E+03    0.96066E+00   -0.16650E+00  4636   0.935E+00    0.155E+00
DAV:   4    -0.210896114715E+03   -0.49064E-01   -0.28195E-01  4386   0.663E+00    0.205E+00
DAV:   5    -0.210880568394E+03    0.15546E-01   -0.34396E-01  3714   0.739E+00    0.108E+00
DAV:   6    -0.210876200260E+03    0.43681E-02   -0.72226E-02  4016   0.301E+00    0.487E-01
DAV:   7    -0.210877324957E+03   -0.11247E-02   -0.23185E-02  4210   0.176E+00    0.452E-01
DAV:   8    -0.210877339522E+03   -0.14565E-04   -0.13388E-02  3540   0.562E-01    0.274E-01
DAV:   9    -0.210877158013E+03    0.18151E-03   -0.28842E-03  4956   0.229E-01    0.207E-01
DAV:  10    -0.210876995851E+03    0.16216E-03   -0.43600E-03  3527   0.269E-01    0.128E-01
DAV:  11    -0.210876929733E+03    0.66118E-04   -0.72855E-04  4260   0.171E-01    0.267E-02
DAV:  12    -0.210876942659E+03   -0.12926E-04   -0.93432E-05  4228   0.116E-01    0.158E-02
DAV:  13    -0.210876949266E+03   -0.66076E-05   -0.22711E-05  4076   0.455E-02    0.730E-03
DAV:  14    -0.210876953719E+03   -0.44531E-05   -0.67248E-06  3098   0.376E-02    0.473E-03
DAV:  15    -0.210876957317E+03   -0.35976E-05   -0.21588E-06  1956   0.218E-02    0.177E-03
DAV:  16    -0.210876960063E+03   -0.27459E-05   -0.89151E-07  1860   0.859E-03    0.179E-03
DAV:  17    -0.210876961861E+03   -0.17980E-05   -0.73117E-07  1740   0.680E-03    0.106E-03
DAV:  18    -0.210876963860E+03   -0.19987E-05   -0.33065E-07  1839   0.498E-03    0.810E-04
DAV:  19    -0.210876965136E+03   -0.12767E-05   -0.31029E-07  1732   0.401E-03    0.734E-04
DAV:  20    -0.210876967280E+03   -0.21434E-05   -0.33163E-07  1832   0.232E-03    0.890E-04
DAV:  21    -0.210876967665E+03   -0.38528E-06   -0.13549E-07  1700   0.236E-03
  29 F= -.21087697E+03 E0= -.21082828E+03  d E =-.859967E+00
       N       E                     dE             d eps       ncg     rms          rms(c)
DAV:   1    -0.210961880923E+03   -0.84914E-01   -0.12542E+01  2850   0.638E+00    0.832E-01
DAV:   2    -0.211134778653E+03   -0.17290E+00   -0.15014E+00  4541   0.249E+00    0.483E+00
DAV:   3    -0.210974503167E+03    0.16028E+00   -0.98408E-01  4336   0.279E+00    0.488E-01
DAV:   4    -0.210991456199E+03   -0.16953E-01   -0.30013E-02  4024   0.184E+00    0.597E-01
DAV:   5    -0.210990984591E+03    0.47161E-03   -0.14136E-02  3720   0.225E+00    0.310E-01
DAV:   6    -0.210990907118E+03    0.77473E-04   -0.44046E-03  4008   0.107E+00    0.755E-02
DAV:   7    -0.210991257768E+03   -0.35065E-03   -0.15345E-03  4172   0.383E-01    0.712E-02
DAV:   8    -0.210991300689E+03   -0.42921E-04   -0.55143E-04  3551   0.189E-01    0.553E-02
DAV:   9    -0.210991285863E+03    0.14826E-04   -0.73998E-05  4236   0.584E-02    0.253E-02
DAV:  10    -0.210991289015E+03   -0.31514E-05   -0.10096E-04  3340   0.107E-01    0.148E-02
DAV:  11    -0.210991288531E+03    0.48388E-06   -0.18947E-05  3932   0.444E-02    0.679E-03
DAV:  12    -0.210991289159E+03   -0.62829E-06   -0.54507E-06  2444   0.228E-02
  30 F= -.21099129E+03 E0= -.21094228E+03  d E =-.114321E+00
       N       E                     dE             d eps       ncg     rms          rms(c)
DAV:   1    -0.211031682691E+03   -0.40394E-01   -0.11278E+02  2850   0.192E+01    0.280E+00
DAV:   2    -0.212616333137E+03   -0.15847E+01   -0.16898E+01  4780   0.936E+00    0.834E+00
DAV:   3    -0.211298148548E+03    0.13182E+01   -0.11689E+00  4682   0.107E+01    0.270E+00
DAV:   4    -0.211328321526E+03   -0.30173E-01   -0.28296E-01  4381   0.791E+00    0.168E+00
DAV:   5    -0.211317242547E+03    0.11079E-01   -0.18789E-01  4234   0.612E+00    0.922E-01
DAV:   6    -0.211339805408E+03   -0.22563E-01   -0.27008E-01  3922   0.212E+00    0.183E+00
DAV:   7    -0.211325837565E+03    0.13968E-01   -0.30285E-01  4018   0.160E+00    0.103E+00
DAV:   8    -0.211323334714E+03    0.25029E-02   -0.62827E-02  3890   0.101E+00    0.415E-01
DAV:   9    -0.211322690384E+03    0.64433E-03   -0.59043E-03  3972   0.396E-01    0.164E-01
DAV:  10    -0.211322632418E+03    0.57965E-04   -0.14349E-03  4244   0.197E-01    0.602E-02
DAV:  11    -0.211322698586E+03   -0.66168E-04   -0.27801E-04  3156   0.702E-02    0.602E-02
DAV:  12    -0.211322697694E+03    0.89162E-06   -0.11980E-04  3996   0.927E-02    0.198E-02
DAV:  13    -0.211322707575E+03   -0.98803E-05   -0.44884E-05  4156   0.780E-02    0.208E-02
DAV:  14    -0.211322709201E+03   -0.16260E-05   -0.85690E-06  4044   0.247E-02    0.181E-02
DAV:  15    -0.211322709001E+03    0.19971E-06   -0.11957E-05  1932   0.216E-02    0.249E-03
DAV:  16    -0.211322711240E+03   -0.22387E-05   -0.12808E-06  2084   0.109E-02    0.374E-03
DAV:  17    -0.211322713203E+03   -0.19631E-05   -0.11957E-06  1844   0.612E-03    0.115E-03
DAV:  18    -0.211322713989E+03   -0.78580E-06   -0.32339E-07  1684   0.437E-03
  31 F= -.21132271E+03 E0= -.21127256E+03  d E =-.445746E+00
       N       E                     dE             d eps       ncg     rms          rms(c)
DAV:   1    -0.210512461016E+03    0.81025E+00   -0.45270E+02  2850   0.387E+01    0.761E+00
DAV:   2    -0.218332672840E+03   -0.78202E+01   -0.79465E+01  5132   0.281E+01    0.190E+01
DAV:   3    -0.212585008426E+03    0.57477E+01   -0.33077E+01  4999   0.318E+01    0.103E+01
DAV:   4    -0.212103228734E+03    0.48178E+00   -0.25454E+00  4351   0.168E+01    0.750E+00
DAV:   5    -0.211889217229E+03    0.21401E+00   -0.39548E+00  4511   0.129E+01    0.324E+00
DAV:   6    -0.211869292760E+03    0.19924E-01   -0.73786E-01  4287   0.552E+00    0.296E+00
DAV:   7    -0.211995126300E+03   -0.12583E+00   -0.18646E+00  3949   0.318E+00    0.576E+00
DAV:   8    -0.211854054601E+03    0.14107E+00   -0.21994E-01  3846   0.166E+00    0.266E+00
DAV:   9    -0.211867441994E+03   -0.13387E-01   -0.21292E-02  4218   0.156E+00    0.258E+00
DAV:  10    -0.211844575212E+03    0.22867E-01   -0.77528E-02  3594   0.103E+00    0.838E-01
DAV:  11    -0.211856556494E+03   -0.11981E-01   -0.56085E-03  3914   0.811E-01    0.860E-01
DAV:  12    -0.211856376513E+03    0.17998E-03   -0.20742E-03  4188   0.516E-01    0.696E-01
DAV:  13    -0.211855631801E+03    0.74471E-03   -0.19167E-03  4511   0.193E-01    0.416E-01
DAV:  14    -0.211855912095E+03   -0.28029E-03   -0.14514E-03  3962   0.179E-01    0.189E-01
DAV:  15    -0.211856272574E+03   -0.36048E-03   -0.45249E-04  4090   0.129E-01    0.823E-02
DAV:  16    -0.211856408285E+03   -0.13571E-03   -0.68676E-05  3850   0.410E-02    0.522E-02
[...]
DAV:   7    -0.218233597115E+03    0.86868E-01   -0.39274E-01  4820   0.481E+00    0.985E-01
DAV:   8    -0.218240724913E+03   -0.71278E-02   -0.61283E-02  3967   0.230E+00    0.376E-01
DAV:   9    -0.218243296506E+03   -0.25716E-02   -0.18875E-02  3492   0.178E+00    0.250E-01
DAV:  10    -0.218243202396E+03    0.94110E-04   -0.42726E-03  3500   0.744E-01    0.224E-01
DAV:  11    -0.218243044204E+03    0.15819E-03   -0.27626E-03  3636   0.415E-01    0.611E-02
DAV:  12    -0.218243219308E+03   -0.17510E-03   -0.91905E-04  3564   0.284E-01    0.884E-02
DAV:  13    -0.218243208116E+03    0.11193E-04   -0.21736E-04  3564   0.111E-01    0.534E-02
DAV:  14    -0.218243203931E+03    0.41850E-05   -0.11450E-04  3428   0.966E-02    0.143E-02
DAV:  15    -0.218243213395E+03   -0.94644E-05   -0.25595E-05  3692   0.551E-02    0.936E-03
DAV:  16    -0.218243216565E+03   -0.31697E-05   -0.94919E-06  3132   0.365E-02    0.711E-03
DAV:  17    -0.218243217705E+03   -0.11406E-05   -0.32887E-06  2028   0.129E-02    0.250E-03
DAV:  18    -0.218243219001E+03   -0.12959E-05   -0.12949E-06  1828   0.123E-02    0.278E-03
DAV:  19    -0.218243219943E+03   -0.94221E-06   -0.77271E-07  1796   0.756E-03
 197 F= -.21824322E+03 E0= -.21821020E+03  d E =-.181401E+00
       N       E                     dE             d eps       ncg     rms          rms(c)
DAV:   1    -0.218056099678E+03    0.18712E+00   -0.59564E+01  2850   0.140E+01    0.248E+00
DAV:   2    -0.218933545439E+03   -0.87745E+00   -0.80041E+00  4972   0.855E+00    0.642E+00
DAV:   3    -0.218233003068E+03    0.70054E+00   -0.81736E-01  4724   0.102E+01    0.158E+00
DAV:   4    -0.218257093400E+03   -0.24090E-01   -0.20068E-01  3908   0.757E+00    0.120E+00
DAV:   5    -0.218246720727E+03    0.10373E-01   -0.86998E-02  3732   0.543E+00    0.525E-01
DAV:   6    -0.218255689338E+03   -0.89686E-02   -0.66607E-02  4204   0.228E+00    0.973E-01
DAV:   7    -0.218249641916E+03    0.60474E-02   -0.43334E-02  3508   0.214E+00    0.210E-01
DAV:   8    -0.218251114999E+03   -0.14731E-02   -0.59986E-03  3780   0.940E-01    0.155E-01
DAV:   9    -0.218251098236E+03    0.16763E-04   -0.19916E-03  3612   0.413E-01    0.687E-02
DAV:  10    -0.218251139632E+03   -0.41396E-04   -0.56613E-04  3412   0.161E-01    0.347E-02
DAV:  11    -0.218251144818E+03   -0.51861E-05   -0.11307E-04  3596   0.109E-01    0.246E-02
DAV:  12    -0.218251149484E+03   -0.46655E-05   -0.97564E-05  3575   0.889E-02    0.289E-02
DAV:  13    -0.218251145190E+03    0.42934E-05   -0.38395E-05  4036   0.399E-02    0.407E-03
DAV:  14    -0.218251147240E+03   -0.20500E-05   -0.32376E-06  2396   0.173E-02    0.376E-03
DAV:  15    -0.218251147654E+03   -0.41357E-06   -0.12213E-06  1628   0.135E-02
 198 F= -.21825115E+03 E0= -.21821709E+03  d E =-.189329E+00
       N       E                     dE             d eps       ncg     rms          rms(c)
DAV:   1    -0.218259558617E+03   -0.84114E-02   -0.27440E+00  2850   0.293E+00    0.437E-01
DAV:   2    -0.218286556699E+03   -0.26998E-01   -0.21777E-01  4356   0.109E+00    0.192E+00
DAV:   3    -0.218263768716E+03    0.22788E-01   -0.14953E-01  4196   0.127E+00    0.374E-01
DAV:   4    -0.218267623464E+03   -0.38547E-02   -0.76302E-03  3627   0.929E-01    0.155E-01
DAV:   5    -0.218267819324E+03   -0.19586E-03   -0.21136E-03  3608   0.996E-01    0.125E-01
DAV:   6    -0.218267788506E+03    0.30818E-04   -0.99616E-04  3699   0.703E-01    0.600E-02
DAV:   7    -0.218267794852E+03   -0.63461E-05   -0.43942E-04  4189   0.373E-01    0.314E-02
DAV:   8    -0.218267797383E+03   -0.25312E-05   -0.17067E-04  4172   0.163E-01    0.161E-02
DAV:   9    -0.218267800267E+03   -0.28837E-05   -0.43850E-05  3412   0.475E-02    0.116E-02
DAV:  10    -0.218267800698E+03   -0.43126E-06   -0.20627E-05  3348   0.516E-02    0.518E-03
DAV:  11    -0.218267800731E+03   -0.33295E-07   -0.24354E-06  1796   0.177E-02
 199 F= -.21826780E+03 E0= -.21823391E+03  d E =-.166531E-01
       N       E                     dE             d eps       ncg     rms          rms(c)
DAV:   1    -0.218230711751E+03    0.37089E-01   -0.24683E+01  2850   0.882E+00    0.133E+00
DAV:   2    -0.218479160550E+03   -0.24845E+00   -0.22644E+00  4308   0.332E+00    0.566E+00
DAV:   3    -0.218295737588E+03    0.18342E+00   -0.13018E+00  4052   0.385E+00    0.115E+00
DAV:   4    -0.218309285914E+03   -0.13548E-01   -0.67256E-02  3695   0.297E+00    0.468E-01
DAV:   5    -0.218310172132E+03   -0.88622E-03   -0.18837E-02  3650   0.293E+00    0.393E-01
DAV:   6    -0.218309875326E+03    0.29681E-03   -0.10569E-02  3629   0.210E+00    0.221E-01
DAV:   7    -0.218309859192E+03    0.16134E-04   -0.45420E-03  4205   0.127E+00    0.118E-01
DAV:   8    -0.218309866796E+03   -0.76032E-05   -0.18059E-03  4100   0.542E-01    0.626E-02
DAV:   9    -0.218309896408E+03   -0.29613E-04   -0.52726E-04  3548   0.162E-01    0.369E-02
DAV:  10    -0.218309902982E+03   -0.65739E-05   -0.21530E-04  3428   0.157E-01    0.148E-02
DAV:  11    -0.218309905535E+03   -0.25528E-05   -0.31945E-05  4348   0.525E-02    0.134E-02
DAV:  12    -0.218309906375E+03   -0.83982E-06   -0.14576E-05  3324   0.413E-02    0.954E-03
DAV:  13    -0.218309906298E+03    0.76776E-07   -0.66286E-06  2980   0.345E-02
 200 F= -.21830991E+03 E0= -.21827658E+03  d E =-.587586E-01
       N       E                     dE             d eps       ncg     rms          rms(c)
DAV:   1    -0.217993105133E+03    0.31680E+00   -0.98555E+01  2850   0.177E+01    0.270E+00
DAV:   2    -0.218884681337E+03   -0.89158E+00   -0.88725E+00  4271   0.676E+00    0.882E+00
DAV:   3    -0.218353170821E+03    0.53151E+00   -0.29354E+00  3948   0.790E+00    0.248E+00
DAV:   4    -0.218349173374E+03    0.39974E-02   -0.28716E-01  3628   0.659E+00    0.101E+00
DAV:   5    -0.218352242956E+03   -0.30696E-02   -0.78044E-02  3764   0.571E+00    0.831E-01
DAV:   6    -0.218350672234E+03    0.15707E-02   -0.49857E-02  3639   0.409E+00    0.533E-01
DAV:   7    -0.218350690341E+03   -0.18107E-04   -0.20793E-02  4223   0.274E+00    0.333E-01
DAV:   8    -0.218350327658E+03    0.36268E-03   -0.81187E-03  3780   0.132E+00    0.163E-01
DAV:   9    -0.218350478263E+03   -0.15060E-03   -0.29866E-03  3532   0.378E-01    0.739E-02
DAV:  10    -0.218350526553E+03   -0.48290E-04   -0.87478E-04  3460   0.302E-01    0.391E-02
DAV:  11    -0.218350534458E+03   -0.79043E-05   -0.14811E-04  3948   0.132E-01    0.298E-02
DAV:  12    -0.218350535040E+03   -0.58219E-06   -0.77367E-05  3460   0.767E-02    0.142E-02
DAV:  13    -0.218350536692E+03   -0.16518E-05   -0.31508E-05  3492   0.730E-02    0.793E-03
DAV:  14    -0.218350537657E+03   -0.96549E-06   -0.86737E-06  3236   0.323E-02
 201 F= -.21835054E+03 E0= -.21831875E+03  d E =-.993900E-01
       N       E                     dE             d eps       ncg     rms          rms(c)
DAV:   1    -0.218378629744E+03   -0.28093E-01   -0.11695E+00  2850   0.198E+00    0.268E-01
DAV:   2    -0.218384058771E+03   -0.54290E-02   -0.53070E-02  4436   0.955E-01    0.508E-01
DAV:   3    -0.218383127189E+03    0.93158E-03   -0.21785E-02  4308   0.816E-01    0.377E-01
DAV:   4    -0.218382531725E+03    0.59546E-03   -0.65873E-03  3671   0.396E-01    0.160E-01
DAV:   5    -0.218382724512E+03   -0.19279E-03   -0.86969E-04  3679   0.611E-01    0.120E-01
DAV:   6    -0.218382678310E+03    0.46202E-04   -0.56576E-04  3802   0.468E-01    0.357E-02
DAV:   7    -0.218382695622E+03   -0.17312E-04   -0.15443E-04  4458   0.264E-01    0.216E-02
DAV:   8    -0.218382694789E+03    0.83342E-06   -0.76541E-05  4228   0.129E-01    0.978E-03
DAV:   9    -0.218382696449E+03   -0.16603E-05   -0.23348E-05  3380   0.427E-02    0.888E-03
DAV:  10    -0.218382696298E+03    0.15117E-06   -0.11130E-05  3356   0.363E-02    0.517E-03
DAV:  11    -0.218382696231E+03    0.66997E-07   -0.17156E-06  1703   0.137E-02
 202 F= -.21838270E+03 E0= -.21835090E+03  d E =-.321586E-01
       N       E                     dE             d eps       ncg     rms          rms(c)
DAV:   1    -0.218419394555E+03   -0.36698E-01   -0.10531E+01  2850   0.593E+00    0.810E-01
DAV:   2    -0.218470262138E+03   -0.50868E-01   -0.48971E-01  4460   0.297E+00    0.151E+00
DAV:   3    -0.218462355641E+03    0.79065E-02   -0.20363E-01  4348   0.258E+00    0.118E+00
DAV:   4    -0.218455921368E+03    0.64343E-02   -0.67676E-02  3716   0.127E+00    0.540E-01
DAV:   5    -0.218457110600E+03   -0.11892E-02   -0.75191E-03  3658   0.173E+00    0.396E-01
DAV:   6    -0.218456402742E+03    0.70786E-03   -0.61015E-03  3794   0.140E+00    0.110E-01
DAV:   7    -0.218456569677E+03   -0.16694E-03   -0.15631E-03  4282   0.854E-01    0.585E-02
DAV:   8    -0.218456572619E+03   -0.29419E-05   -0.73703E-04  4234   0.403E-01    0.366E-02
DAV:   9    -0.218456585998E+03   -0.13379E-04   -0.24823E-04  3428   0.134E-01    0.304E-02
DAV:  10    -0.218456583255E+03    0.27429E-05   -0.10606E-04  3564   0.110E-01    0.144E-02
DAV:  11    -0.218456583282E+03   -0.26892E-07   -0.19932E-05  3916   0.415E-02    0.506E-03
DAV:  12    -0.218456584217E+03   -0.93458E-06   -0.83168E-06  3399   0.317E-02
 203 F= -.21845658E+03 E0= -.21842475E+03  d E =-.106047E+00
       N       E                     dE             d eps       ncg     rms          rms(c)
DAV:   1    -0.218345189930E+03    0.11139E+00   -0.42119E+01  2850   0.118E+01    0.164E+00
DAV:   2    -0.218560008669E+03   -0.21482E+00   -0.20884E+00  4508   0.650E+00    0.286E+00
DAV:   3    -0.218538688276E+03    0.21320E-01   -0.88279E-01  4500   0.579E+00    0.263E+00
DAV:   4    -0.218503144569E+03    0.35544E-01   -0.35179E-01  3788   0.259E+00    0.125E+00
DAV:   5    -0.218506122002E+03   -0.29774E-02   -0.27635E-02  3743   0.324E+00    0.921E-01
DAV:   6    -0.218502314827E+03    0.38072E-02   -0.32889E-02  3714   0.284E+00    0.238E-01
DAV:   7    -0.218503063673E+03   -0.74885E-03   -0.74775E-03  4122   0.187E+00    0.127E-01
DAV:   8    -0.218503111857E+03   -0.48184E-04   -0.31643E-03  4242   0.851E-01    0.108E-01
DAV:   9    -0.218503132051E+03   -0.20194E-04   -0.12301E-03  3404   0.294E-01    0.731E-02
DAV:  10    -0.218503117732E+03    0.14319E-04   -0.46972E-04  3508   0.229E-01    0.267E-02
DAV:  11    -0.218503123722E+03   -0.59901E-05   -0.92545E-05  4188   0.869E-02    0.111E-02
DAV:  12    -0.218503127284E+03   -0.35619E-05   -0.39743E-05  3647   0.696E-02    0.696E-03
DAV:  13    -0.218503128397E+03   -0.11136E-05   -0.11509E-05  3487   0.380E-02    0.424E-03
DAV:  14    -0.218503129784E+03   -0.13865E-05   -0.38210E-06  2615   0.224E-02    0.248E-03
DAV:  15    -0.218503131098E+03   -0.13140E-05   -0.15351E-06  2111   0.133E-02    0.252E-03
DAV:  16    -0.218503132479E+03   -0.13809E-05   -0.12592E-06  2055   0.122E-02    0.170E-03
DAV:  17    -0.218503133741E+03   -0.12623E-05   -0.13403E-06  2279   0.876E-03    0.107E-03
DAV:  18    -0.218503134967E+03   -0.12257E-05   -0.66091E-07  1903   0.632E-03    0.969E-04
DAV:  19    -0.218503136060E+03   -0.10936E-05   -0.60432E-07  1903   0.628E-03    0.726E-04
DAV:  20    -0.218503136768E+03   -0.70781E-06   -0.69201E-07  1991   0.343E-03
 204 F= -.21850314E+03 E0= -.21847132E+03  d E =-.152599E+00
       N       E                     dE             d eps       ncg     rms          rms(c)
DAV:   1    -0.218525734535E+03   -0.22598E-01   -0.15330E+00  2850   0.221E+00    0.295E-01
DAV:   2    -0.218532399355E+03   -0.66648E-02   -0.66215E-02  4340   0.989E-01    0.496E-01
DAV:   3    -0.218532131995E+03    0.26736E-03   -0.24612E-02  3796   0.918E-01    0.466E-01
DAV:   4    -0.218530955144E+03    0.11769E-02   -0.96083E-03  3687   0.446E-01    0.185E-01
DAV:   5    -0.218531206117E+03   -0.25097E-03   -0.86037E-04  3703   0.523E-01    0.129E-01
DAV:   6    -0.218531176640E+03    0.29477E-04   -0.65327E-04  3645   0.384E-01    0.317E-02
DAV:   7    -0.218531197534E+03   -0.20894E-04   -0.16162E-04  4258   0.228E-01    0.174E-02
DAV:   8    -0.218531198167E+03   -0.63307E-06   -0.70317E-05  4210   0.135E-01    0.145E-02
DAV:   9    -0.218531198533E+03   -0.36514E-06   -0.22403E-05  3268   0.477E-02    0.991E-03
DAV:  10    -0.218531198694E+03   -0.16112E-06   -0.88040E-06  3290   0.327E-02
 205 F= -.21853120E+03 E0= -.21849939E+03  d E =-.280619E-01
       N       E                     dE             d eps       ncg     rms          rms(c)
DAV:   1    -0.218545806325E+03   -0.14608E-01   -0.13807E+01  2850   0.663E+00    0.886E-01
DAV:   2    -0.218608724148E+03   -0.62918E-01   -0.61601E-01  4412   0.327E+00    0.150E+00
DAV:   3    -0.218605864470E+03    0.28597E-02   -0.23000E-01  3908   0.295E+00    0.142E+00
DAV:   4    -0.218594664065E+03    0.11200E-01   -0.96024E-02  3740   0.147E+00    0.631E-01
DAV:   5    -0.218595833299E+03   -0.11692E-02   -0.78974E-03  3708   0.153E+00    0.441E-01
DAV:   6    -0.218595331013E+03    0.50229E-03   -0.73532E-03  3634   0.117E+00    0.104E-01
DAV:   7    -0.218595583949E+03   -0.25294E-03   -0.17388E-03  4162   0.763E-01    0.571E-02
DAV:   8    -0.218595601433E+03   -0.17484E-04   -0.67972E-04  4188   0.427E-01    0.562E-02
DAV:   9    -0.218595599275E+03    0.21582E-05   -0.24109E-04  3394   0.157E-01    0.357E-02
DAV:  10    -0.218595600666E+03   -0.13915E-05   -0.95668E-05  3639   0.107E-01    0.166E-02
DAV:  11    -0.218595605515E+03   -0.48488E-05   -0.37003E-05  3610   0.654E-02    0.527E-03
DAV:  12    -0.218595608108E+03   -0.25933E-05   -0.10403E-05  3660   0.309E-02    0.380E-03
DAV:  13    -0.218595609564E+03   -0.14554E-05   -0.25936E-06  1970   0.193E-02    0.267E-03
DAV:  14    -0.218595612036E+03   -0.24727E-05   -0.15016E-06  1938   0.150E-02    0.202E-03
DAV:  15    -0.218595613661E+03   -0.16245E-05   -0.82946E-07  1922   0.827E-03    0.163E-03
DAV:  16    -0.218595615331E+03   -0.16696E-05   -0.55135E-07  1866   0.743E-03    0.871E-04
DAV:  17    -0.218595616333E+03   -0.10026E-05   -0.45811E-07  1746   0.272E-03    0.588E-04
DAV:  18    -0.218595617404E+03   -0.10710E-05   -0.25056E-07  1802   0.377E-03    0.581E-04
DAV:  19    -0.218595618473E+03   -0.10690E-05   -0.18070E-07  1829   0.296E-03    0.378E-04
DAV:  20    -0.218595619268E+03   -0.79448E-06   -0.14561E-07  1778   0.183E-03
 206 F= -.21859562E+03 E0= -.21856390E+03  d E =-.924825E-01
       N       E                     dE             d eps       ncg     rms          rms(c)
DAV:   1    -0.218417246681E+03    0.17837E+00   -0.55177E+01  2850   0.132E+01    0.181E+00
DAV:   2    -0.218691464578E+03   -0.27422E+00   -0.27003E+00  4396   0.747E+00    0.289E+00
DAV:   3    -0.218686944324E+03    0.45203E-02   -0.10265E+00  3916   0.682E+00    0.301E+00
DAV:   4    -0.218634262274E+03    0.52682E-01   -0.47716E-01  3956   0.315E+00    0.140E+00
DAV:   5    -0.218634990086E+03   -0.72781E-03   -0.31259E-02  3756   0.282E+00    0.100E+00
DAV:   6    -0.218630784997E+03    0.42051E-02   -0.38080E-02  3607   0.244E+00    0.227E-01
DAV:   7    -0.218632221461E+03   -0.14365E-02   -0.87066E-03  4095   0.174E+00    0.155E-01
DAV:   8    -0.218632262239E+03   -0.40777E-04   -0.30904E-03  4167   0.100E+00    0.150E-01
DAV:   9    -0.218632194376E+03    0.67863E-04   -0.12341E-03  3476   0.367E-01    0.803E-02
DAV:  10    -0.218632205907E+03   -0.11532E-04   -0.51840E-04  3519   0.235E-01    0.313E-02
DAV:  11    -0.218632231667E+03   -0.25759E-04   -0.21046E-04  3575   0.151E-01    0.140E-02
DAV:  12    -0.218632237456E+03   -0.57890E-05   -0.49767E-05  4308   0.670E-02    0.749E-03
DAV:  13    -0.218632242471E+03   -0.50159E-05   -0.13508E-05  3490   0.350E-02    0.474E-03
DAV:  14    -0.218632246715E+03   -0.42436E-05   -0.35944E-06  2831   0.209E-02    0.358E-03
DAV:  15    -0.218632250455E+03   -0.37399E-05   -0.20011E-06  2101   0.170E-02    0.276E-03
DAV:  16    -0.218632254645E+03   -0.41896E-05   -0.12746E-06  2106   0.117E-02    0.130E-03
DAV:  17    -0.218632257986E+03   -0.33415E-05   -0.98335E-07  2120   0.516E-03    0.105E-03
DAV:  18    -0.218632260438E+03   -0.24522E-05   -0.53975E-07  1866   0.640E-03    0.856E-04
DAV:  19    -0.218632262937E+03   -0.24992E-05   -0.34771E-07  1888   0.395E-03    0.682E-04
DAV:  20    -0.218632265122E+03   -0.21843E-05   -0.37133E-07  1877   0.418E-03    0.563E-04
DAV:  21    -0.218632266035E+03   -0.91305E-06   -0.25211E-07  1831   0.278E-03
 207 F= -.21863227E+03 E0= -.21860078E+03  d E =-.129129E+00
       N       E                     dE             d eps       ncg     rms          rms(c)
DAV:   1    -0.218625884052E+03    0.63811E-02   -0.23545E+00  2850   0.270E+00    0.371E-01
DAV:   2    -0.218634893468E+03   -0.90094E-02   -0.98378E-02  4258   0.116E+00    0.235E-01
DAV:   3    -0.218636396234E+03   -0.15028E-02   -0.13727E-02  3626   0.157E+00    0.453E-01
DAV:   4    -0.218635127451E+03    0.12688E-02   -0.14307E-02  3682   0.803E-01    0.329E-01
DAV:   5    -0.218634741173E+03    0.38628E-03   -0.22371E-03  3980   0.430E-01    0.103E-01
DAV:   6    -0.218634919100E+03   -0.17793E-03   -0.75114E-04  4368   0.399E-01    0.383E-02
DAV:   7    -0.218634942179E+03   -0.23079E-04   -0.28671E-04  3714   0.351E-01    0.280E-02
DAV:   8    -0.218634934451E+03    0.77286E-05   -0.93732E-05  3546   0.167E-01    0.151E-02
DAV:   9    -0.218634938056E+03   -0.36054E-05   -0.42269E-05  4220   0.522E-02    0.145E-02
DAV:  10    -0.218634938600E+03   -0.54407E-06   -0.16201E-05  3314   0.474E-02    0.914E-03
DAV:  11    -0.218634938672E+03   -0.71945E-07   -0.44126E-06  2458   0.262E-02
 208 F= -.21863494E+03 E0= -.21860340E+03  d E =-.131802E+00
       N       E                     dE             d eps       ncg     rms          rms(c)
DAV:   1    -0.218669830433E+03   -0.34892E-01   -0.93824E-01  2860   0.182E+00    0.292E-01
DAV:   2    -0.218681035730E+03   -0.11205E-01   -0.81483E-02  4722   0.133E+00    0.108E+00
DAV:   3    -0.218671983862E+03    0.90519E-02   -0.48987E-02  4530   0.115E+00    0.272E-01
DAV:   4    -0.218673357051E+03   -0.13732E-02   -0.37558E-03  3669   0.768E-01    0.135E-01
DAV:   5    -0.218673301949E+03    0.55102E-04   -0.12299E-03  3572   0.497E-01    0.878E-02
DAV:   6    -0.218673314095E+03   -0.12146E-04   -0.57263E-04  4245   0.253E-01    0.452E-02
DAV:   7    -0.218673317786E+03   -0.36903E-05   -0.17556E-04  3612   0.219E-01    0.297E-02
DAV:   8    -0.218673316198E+03    0.15873E-05   -0.57707E-05  3620   0.105E-01    0.167E-02
DAV:   9    -0.218673316076E+03    0.12253E-06   -0.19061E-05  4044   0.568E-02    0.693E-03
DAV:  10    -0.218673316868E+03   -0.79197E-06   -0.90598E-06  3252   0.388E-02
 209 F= -.21867332E+03 E0= -.21864197E+03  d E =-.383782E-01
       N       E                     dE             d eps       ncg     rms          rms(c)
DAV:   1    -0.218694360883E+03   -0.21045E-01   -0.84842E+00  2850   0.548E+00    0.871E-01
DAV:   2    -0.218786454344E+03   -0.92093E-01   -0.71134E-01  4751   0.390E+00    0.303E+00
DAV:   3    -0.218723800455E+03    0.62654E-01   -0.40557E-01  4436   0.331E+00    0.841E-01
DAV:   4    -0.218726589891E+03   -0.27894E-02   -0.34897E-02  3623   0.233E+00    0.421E-01
DAV:   5    -0.218725951555E+03    0.63834E-03   -0.12642E-02  3684   0.156E+00    0.273E-01
DAV:   6    -0.218725938461E+03    0.13093E-04   -0.59321E-03  4207   0.847E-01    0.146E-01
DAV:   7    -0.218725940815E+03   -0.23540E-05   -0.17132E-03  3620   0.693E-01    0.957E-02
DAV:   8    -0.218725939170E+03    0.16451E-05   -0.57741E-04  3868   0.367E-01    0.636E-02
DAV:   9    -0.218725923820E+03    0.15350E-04   -0.24690E-04  3743   0.258E-01    0.267E-02
DAV:  10    -0.218725928870E+03   -0.50507E-05   -0.90699E-05  3652   0.118E-01    0.110E-02
DAV:  11    -0.218725931634E+03   -0.27638E-05   -0.33256E-05  3756   0.536E-02    0.113E-02
DAV:  12    -0.218725932110E+03   -0.47573E-06   -0.12481E-05  3380   0.405E-02    0.844E-03
DAV:  13    -0.218725932049E+03    0.61118E-07   -0.29146E-06  1954   0.182E-02
 210 F= -.21872593E+03 E0= -.21869513E+03  d E =-.909934E-01
