<?xml version="1.0" encoding="ISO-8859-1"?>
<modeling>
 <generator>
  <i name="program" type="string">vasp </i>
  <i name="version" type="string">6.5.1  </i>
  <i name="subversion" type="string">10Mar25 (build Mar 14 2026 15:48:08) complex                          parallel </i>
  <i name="platform" type="string">LinuxNV </i>
  <i name="date" type="string">2026 03 24 </i>
  <i name="time" type="string">20:06:14 </i>
 </generator>
 <incar>
  <i type="string" name="SYSTEM">Cu(100) coverage-dependent binding (RPBE)</i>
  <i type="string" name="PREC">Normal</i>
  <i type="string" name="ALGO">Normal</i>
  <i type="int" name="ISPIN">     1</i>
  <i type="int" name="NELM">   200</i>
  <i type="int" name="IBRION">     2</i>
  <i name="EDIFF">      0.00000100</i>
  <i name="EDIFFG">     -0.03000000</i>
  <i type="int" name="NSW">   300</i>
  <i type="int" name="ISIF">     2</i>
  <i name="ENCUT">    450.00000000</i>
  <i type="string" name="LREAL">Auto</i>
  <i type="int" name="ISMEAR">     0</i>
  <i name="SIGMA">      0.10000000</i>
  <i type="logical" name="LWAVE"> F  </i>
  <i type="logical" name="LCHARG"> F  </i>
  <i type="int" name="LORBIT">    11</i>
  <i type="string" name="GGA">RP</i>
 </incar>
 <primitive_cell>
  <structure name="primitive_cell" >
   <crystal>
    <varray name="basis" >
     <v>       7.66857304       0.00000000       0.00000000 </v>
     <v>       0.00000000       7.66857304       0.00000000 </v>
     <v>       0.00000000       0.00000000      29.42250000 </v>
    </varray>
    <i name="volume">   1730.24932528 </i>
    <varray name="rec_basis" >
     <v>       0.13040236       0.00000000       0.00000000 </v>
     <v>       0.00000000       0.13040236       0.00000000 </v>
     <v>       0.00000000       0.00000000       0.03398759 </v>
    </varray>
   </crystal>
   <varray name="positions" >
    <v>       0.16666667       0.16666667       0.40785113 </v>
    <v>       0.50000000       0.16666667       0.40785113 </v>
    <v>       0.83333333       0.16666667       0.40785113 </v>
    <v>       0.16666667       0.50000000       0.40785113 </v>
    <v>       0.50000000       0.50000000       0.40785113 </v>
    <v>       0.83333333       0.50000000       0.40785113 </v>
    <v>       0.16666667       0.83333333       0.40785113 </v>
    <v>       0.50000000       0.83333333       0.40785113 </v>
    <v>       0.83333333       0.83333333       0.40785113 </v>
    <v>       0.00000000       0.00000000       0.46928371 </v>
    <v>       0.33333333       0.00000000       0.46928371 </v>
    <v>       0.66666667       0.00000000       0.46928371 </v>
    <v>       0.00000000       0.33333333       0.46928371 </v>
    <v>       0.33333333       0.33333333       0.46928371 </v>
    <v>       0.66666667       0.33333333       0.46928371 </v>
    <v>       0.00000000       0.66666667       0.46928371 </v>
    <v>       0.33333333       0.66666667       0.46928371 </v>
    <v>       0.66666667       0.66666667       0.46928371 </v>
    <v>       0.16666667       0.16666667       0.53071629 </v>
    <v>       0.50000000       0.16666667       0.53071629 </v>
    <v>       0.83333333       0.16666667       0.53071629 </v>
    <v>       0.16666667       0.50000000       0.53071629 </v>
    <v>       0.50000000       0.50000000       0.53071629 </v>
    <v>       0.83333333       0.50000000       0.53071629 </v>
    <v>       0.16666667       0.83333333       0.53071629 </v>
    <v>       0.50000000       0.83333333       0.53071629 </v>
    <v>       0.83333333       0.83333333       0.53071629 </v>
    <v>       0.00000000       0.00000000       0.59214887 </v>
    <v>       0.33333333       0.00000000       0.59214887 </v>
    <v>       0.66666667       0.00000000       0.59214887 </v>
    <v>       0.00000000       0.33333333       0.59214887 </v>
    <v>       0.33333333       0.33333333       0.59214887 </v>
    <v>       0.66666667       0.33333333       0.59214887 </v>
    <v>       0.00000000       0.66666667       0.59214887 </v>
    <v>       0.33333333       0.66666667       0.59214887 </v>
    <v>       0.66666667       0.66666667       0.59214887 </v>
    <v>       0.16666667       0.23553157       0.68731413 </v>
    <v>       0.16666667       0.28443245       0.64992778 </v>
    <v>       0.16666667       0.38223422       0.64992778 </v>
    <v>       0.16666667       0.43113510       0.68731413 </v>
    <v>       0.16666667       0.83333333       0.73829552 </v>
    <v>       0.16666667       0.83333333       0.77772113 </v>
    <v>       0.50000000       0.16666667       0.73829552 </v>
    <v>       0.50000000       0.16666667       0.77772113 </v>
    <v>       0.50000000       0.50000000       0.73829552 </v>
    <v>       0.50000000       0.50000000       0.77772113 </v>
    <v>       0.50000000       0.83333333       0.73829552 </v>
    <v>       0.50000000       0.83333333       0.77772113 </v>
    <v>       0.83333333       0.16666667       0.73829552 </v>
    <v>       0.83333333       0.16666667       0.77772113 </v>
    <v>       0.83333333       0.50000000       0.73829552 </v>
    <v>       0.83333333       0.50000000       0.77772113 </v>
   </varray>
  </structure>
  <varray name="primitive_index" >
   <v type="int" >        1 </v>
   <v type="int" >        2 </v>
   <v type="int" >        3 </v>
   <v type="int" >        4 </v>
   <v type="int" >        5 </v>
   <v type="int" >        6 </v>
   <v type="int" >        7 </v>
   <v type="int" >        8 </v>
   <v type="int" >        9 </v>
   <v type="int" >       10 </v>
   <v type="int" >       11 </v>
   <v type="int" >       12 </v>
   <v type="int" >       13 </v>
   <v type="int" >       14 </v>
   <v type="int" >       15 </v>
   <v type="int" >       16 </v>
   <v type="int" >       17 </v>
   <v type="int" >       18 </v>
   <v type="int" >       19 </v>
   <v type="int" >       20 </v>
   <v type="int" >       21 </v>
   <v type="int" >       22 </v>
   <v type="int" >       23 </v>
   <v type="int" >       24 </v>
   <v type="int" >       25 </v>
   <v type="int" >       26 </v>
   <v type="int" >       27 </v>
   <v type="int" >       28 </v>
   <v type="int" >       29 </v>
   <v type="int" >       30 </v>
   <v type="int" >       31 </v>
   <v type="int" >       32 </v>
   <v type="int" >       33 </v>
   <v type="int" >       34 </v>
   <v type="int" >       35 </v>
   <v type="int" >       36 </v>
   <v type="int" >       37 </v>
   <v type="int" >       38 </v>
   <v type="int" >       39 </v>
   <v type="int" >       40 </v>
   <v type="int" >       41 </v>
   <v type="int" >       42 </v>
   <v type="int" >       43 </v>
   <v type="int" >       44 </v>
   <v type="int" >       45 </v>
   <v type="int" >       46 </v>
   <v type="int" >       47 </v>
   <v type="int" >       48 </v>
   <v type="int" >       49 </v>
   <v type="int" >       50 </v>
   <v type="int" >       51 </v>
   <v type="int" >       52 </v>
  </varray>
 </primitive_cell>
 <kpoints>
  <generation param="Gamma">
   <v type="int" name="divisions">       3        3        1 </v>
   <v name="usershift">      0.00000000       0.00000000       0.00000000 </v>
   <v name="genvec1">      0.33333333       0.00000000       0.00000000 </v>
   <v name="genvec2">      0.00000000       0.33333333       0.00000000 </v>
   <v name="genvec3">      0.00000000       0.00000000       1.00000000 </v>
   <v name="shift">      0.00000000       0.00000000       0.00000000 </v>
  </generation>
  <varray name="kpointlist" >
   <v>       0.00000000       0.00000000       0.00000000 </v>
   <v>       0.33333333       0.00000000       0.00000000 </v>
   <v>       0.00000000       0.33333333       0.00000000 </v>
   <v>       0.33333333       0.33333333       0.00000000 </v>
   <v>      -0.33333333       0.33333333       0.00000000 </v>
  </varray>
  <varray name="weights" >
   <v>       0.11111111 </v>
   <v>       0.22222222 </v>
   <v>       0.22222222 </v>
   <v>       0.22222222 </v>
   <v>       0.22222222 </v>
  </varray>
 </kpoints>
 <parameters>
  <separator name="general" >
   <i type="string" name="SYSTEM">Cu(100) coverage-dependent binding (RPBE</i>
   <i type="logical" name="LCOMPAT"> F  </i>
  </separator>
  <separator name="electronic" >
   <i type="string" name="PREC">normal</i>
   <i name="ENMAX">    450.00000000</i>
   <i name="ENAUG">    644.87300000</i>
   <i name="EDIFF">      0.00000100</i>
   <i type="int" name="IALGO">    38</i>
   <i type="int" name="IWAVPR">    11</i>
   <i type="int" name="NBANDS">   285</i>
   <i type="int" name="NBANDSLOW">    -1</i>
   <i type="int" name="NBANDSHIGH">    -1</i>
   <i name="NELECT">    476.00000000</i>
   <i type="int" name="TURBO">     0</i>
   <i type="int" name="IRESTART">     0</i>
   <i type="int" name="NREBOOT">     0</i>
   <i type="int" name="NMIN">     0</i>
   <i name="EREF">      0.00000000</i>
   <separator name="electronic smearing" >
    <i type="int" name="ISMEAR">     0</i>
    <i name="SIGMA">      0.10000000</i>
    <i name="KSPACING">      0.50000000</i>
    <i type="logical" name="KGAMMA"> T  </i>
    <i type="logical" name="KBLOWUP"> T  </i>
   </separator>
   <separator name="electronic projectors" >
    <i type="logical" name="LREAL"> T  </i>
    <v name="ROPT">     -0.00050000     -0.00050000     -0.00050000     -0.00050000     -0.00050000     -0.00050000     -0.00050000     -0.00050000     -0.00050000     -0.00050000     -0.00050000     -0.00050000     -0.00050000     -0.00050000     -0.00050000     -0.00050000</v>
    <i type="int" name="LMAXPAW">  -100</i>
    <i type="int" name="LMAXMIX">     2</i>
    <i type="logical" name="NLSPLINE"> F  </i>
   </separator>
   <separator name="electronic startup" >
    <i type="int" name="ISTART">     0</i>
    <i type="int" name="ICHARG">     2</i>
    <i type="int" name="INIWAV">     1</i>
   </separator>
   <separator name="electronic spin" >
    <i type="int" name="ISPIN">     1</i>
    <i type="logical" name="LNONCOLLINEAR"> F  </i>
    <v name="MAGMOM">      1.00000000      1.00000000      1.00000000      1.00000000      1.00000000      1.00000000      1.00000000      1.00000000      1.00000000      1.00000000      1.00000000      1.00000000      1.00000000      1.00000000      1.00000000      1.00000000      1.00000000      1.00000000      1.00000000      1.00000000
      1.00000000      1.00000000      1.00000000      1.00000000      1.00000000      1.00000000      1.00000000      1.00000000      1.00000000      1.00000000      1.00000000      1.00000000      1.00000000      1.00000000      1.00000000      1.00000000      1.00000000      1.00000000      1.00000000      1.00000000
      1.00000000      1.00000000      1.00000000      1.00000000      1.00000000      1.00000000      1.00000000      1.00000000      1.00000000      1.00000000      1.00000000      1.00000000</v>
    <i name="NUPDOWN">     -1.00000000</i>
    <i type="logical" name="LSORBIT"> F  </i>
    <v name="SAXIS">      0.00000000      0.00000000      1.00000000</v>
    <i type="logical" name="LSPIRAL"> F  </i>
    <v name="QSPIRAL">      0.00000000      0.00000000      0.00000000</v>
    <i type="logical" name="LZEROZ"> F  </i>
   </separator>
   <separator name="electronic exchange-correlation" >
    <i type="logical" name="LASPH"> F  </i>
   </separator>
   <separator name="electronic convergence" >
    <i type="int" name="NELM">   200</i>
    <i type="int" name="NELMDL">    -5</i>
    <i type="int" name="NELMIN">     2</i>
    <i name="ENINI">    450.00000000</i>
    <separator name="electronic convergence detail" >
     <i type="logical" name="LDIAG"> T  </i>
     <i type="logical" name="LSUBROT"> F  </i>
     <i type="logical" name="LROBUST"> F  </i>
     <i type="int" name="ISEARCH">     0</i>
     <i name="WEIMIN">      0.00100000</i>
     <i name="EBREAK">      0.00000000</i>
     <i name="DEPER">      0.30000000</i>
     <i type="int" name="NRMM">     4</i>
     <i name="TIME">      0.40000000</i>
    </separator>
   </separator>
   <separator name="electronic mixer" >
    <i name="AMIX">      0.40000000</i>
    <i name="BMIX">      1.00000000</i>
    <i name="AMIN">      0.10000000</i>
    <i name="AMIX_MAG">      1.60000000</i>
    <i name="BMIX_MAG">      1.00000000</i>
    <separator name="electronic mixer details" >
     <i type="int" name="IMIX">     4</i>
     <i type="logical" name="MIXFIRST"> F  </i>
     <i type="int" name="MAXMIX">   -45</i>
     <i name="WC">    100.00000000</i>
     <i type="int" name="INIMIX">     1</i>
     <i type="int" name="MIXPRE">     1</i>
     <i type="int" name="MREMOVE">     5</i>
    </separator>
   </separator>
   <separator name="electronic dipolcorrection" >
    <i type="logical" name="LDIPOL"> F  </i>
    <i type="logical" name="LMONO"> F  </i>
    <i type="int" name="IDIPOL">     0</i>
    <i name="EPSILON">      1.00000000</i>
    <v name="DIPOL">   -100.00000000   -100.00000000   -100.00000000</v>
    <i name="EFIELD">      0.00000000</i>
    <i type="logical" name="LVACPOTAV"> F  </i>
   </separator>
  </separator>
  <separator name="grids" >
   <i type="int" name="NGX">    40</i>
   <i type="int" name="NGY">    40</i>
   <i type="int" name="NGZ">   160</i>
   <i type="int" name="NGXF">    80</i>
   <i type="int" name="NGYF">    80</i>
   <i type="int" name="NGZF">   320</i>
   <i type="logical" name="ADDGRID"> F  </i>
  </separator>
  <separator name="ionic" >
   <i type="int" name="NSW">   300</i>
   <i type="int" name="IBRION">     2</i>
   <i type="int" name="MDALGO">     0</i>
   <i type="int" name="ISIF">     2</i>
   <i name="PSTRESS">      0.00000000</i>
   <i name="EDIFFG">     -0.03000000</i>
   <i type="int" name="NFREE">     1</i>
   <i name="POTIM">      0.50000000</i>
   <i name="SMASS">     -3.00000000</i>
   <i name="SCALEE">      1.00000000</i>
  </separator>
  <separator name="ionic md" >
   <i name="TEBEG">      0.00010000</i>
   <i name="TEEND">      0.00010000</i>
   <i type="int" name="NBLOCK">     1</i>
   <i type="int" name="KBLOCK">   300</i>
   <i type="int" name="NPACO">   256</i>
   <i name="APACO">     10.00000000</i>
  </separator>
  <separator name="symmetry" >
   <i type="int" name="ISYM">     2</i>
   <i name="SYMPREC">      0.00001000</i>
  </separator>
  <separator name="dos" >
   <i type="int" name="LORBIT">    11</i>
   <v name="RWIGS">     -1.00000000     -1.00000000     -1.00000000     -1.00000000     -1.00000000     -1.00000000     -1.00000000     -1.00000000     -1.00000000     -1.00000000     -1.00000000     -1.00000000     -1.00000000     -1.00000000     -1.00000000     -1.00000000</v>
   <i type="int" name="NEDOS">   301</i>
   <i name="EMIN">     10.00000000</i>
   <i name="EMAX">    -10.00000000</i>
   <i name="EFERMI">      0.00000000</i>
  </separator>
  <separator name="writing" >
   <i type="int" name="NWRITE">     2</i>
   <i type="logical" name="LWAVE"> F  </i>
   <i type="logical" name="LDOWNSAMPLE"> F  </i>
   <i type="logical" name="LCHARG"> F  </i>
   <i type="logical" name="LPARD"> F  </i>
   <i type="logical" name="LVTOT"> F  </i>
   <i type="logical" name="LVHAR"> F  </i>
   <i type="logical" name="LELF"> F  </i>
   <i type="logical" name="LOPTICS"> F  </i>
   <v name="STM">      0.00000000      0.00000000      0.00000000      0.00000000      0.00000000      0.00000000      0.00000000</v>
  </separator>
  <separator name="performance" >
   <i type="int" name="NPAR">     1</i>
   <i type="int" name="NSIM">     4</i>
   <i type="int" name="NBLK">    -1</i>
   <i type="logical" name="LPLANE"> T  </i>
   <i type="logical" name="LSCALAPACK"> T  </i>
   <i type="logical" name="LSCAAWARE"> F  </i>
   <i type="logical" name="LSCALU"> F  </i>
   <i type="logical" name="LASYNC"> F  </i>
   <i type="logical" name="LORBITALREAL"> F  </i>
  </separator>
  <separator name="miscellaneous" >
   <i type="int" name="IDIOT">     3</i>
   <i type="int" name="PHON_NSTRUCT">    -1</i>
   <i type="logical" name="LMUSIC"> F  </i>
   <v name="POMASS">     63.54600000     16.00000000     12.01100000     16.00000000     12.01100000     16.00000000     12.01100000     16.00000000     12.01100000     16.00000000     12.01100000     16.00000000     12.01100000     16.00000000     12.01100000     16.00000000</v>
   <v name="DARWINR">      0.00000000      0.00000000      0.00000000      0.00000000      0.00000000      0.00000000      0.00000000      0.00000000      0.00000000      0.00000000      0.00000000      0.00000000      0.00000000      0.00000000      0.00000000      0.00000000</v>
   <v name="DARWINV">      1.00000000      1.00000000      1.00000000      1.00000000      1.00000000      1.00000000      1.00000000      1.00000000      1.00000000      1.00000000      1.00000000      1.00000000      1.00000000      1.00000000      1.00000000      1.00000000</v>
   <i type="logical" name="LCORR"> T  </i>
  </separator>
  <i type="logical" name="GGA_COMPAT"> T  </i>
  <i type="logical" name="LBERRY"> F  </i>
  <i type="int" name="ICORELEVEL">     0</i>
  <i type="logical" name="LDAU"> F  </i>
  <i type="int" name="I_CONSTRAINED_M">     0</i>
  <separator name="electronic exchange-correlation" >
   <i type="string" name="GGA    ">RP</i>
   <i type="string" name="XC_C">1</i>
   <i type="int" name="VOSKOWN">     0</i>
   <i type="logical" name="LHFCALC"> F  </i>
   <i type="string" name="PRECFOCK"></i>
   <i type="logical" name="LSYMGRAD"> F  </i>
   <i type="logical" name="LHFONE"> F  </i>
   <i type="logical" name="LRHFCALC"> F  </i>
   <i type="logical" name="LTHOMAS"> F  </i>
   <i type="logical" name="LMODELHF"> F  </i>
   <i type="logical" name="LFOCKACE"> F  </i>
   <i name="ENCUT4O">     -1.00000000</i>
   <i type="int" name="EXXOEP">     0</i>
   <i type="int" name="FOURORBIT">     0</i>
   <i name="AEXX">      0.00000000</i>
   <i name="HFALPHA">      0.00000000</i>
   <i name="MCALPHA">      0.00000000</i>
   <i name="ALDAX">      1.00000000</i>
   <i name="AGGAX">      1.00000000</i>
   <i name="AMGGAX">      1.00000000</i>
   <i name="ALDAC">      1.00000000</i>
   <i name="AGGAC">      1.00000000</i>
   <i name="AMGGAC">      1.00000000</i>
   <i type="int" name="NKREDX">     1</i>
   <i type="int" name="NKREDY">     1</i>
   <i type="int" name="NKREDZ">     1</i>
   <i type="logical" name="SHIFTRED"> F  </i>
   <i type="logical" name="ODDONLY"> F  </i>
   <i type="logical" name="EVENONLY"> F  </i>
   <i type="int" name="LMAXFOCK">     0</i>
   <i type="int" name="NMAXFOCKAE">     0</i>
   <i type="logical" name="LFOCKAEDFT"> F  </i>
   <i name="HFSCREEN">      0.00000000</i>
   <i name="HFSCREENC">      0.00000000</i>
   <i type="int" name="NBANDSGWLOW">     0</i>
  </separator>
  <separator name="vdW DFT" >
   <i type="logical" name="LUSE_VDW"> F  </i>
   <i type="int" name="IVDW_NL">    -1</i>
   <i type="logical" name="LSPIN_VDW"> F  </i>
   <i name="ZAB_VDW">     -0.84910000</i>
   <i name="GAMMA_VDW">      1.39626340</i>
   <i name="ALPHA_VDW">      0.00000000</i>
   <i name="PARAM1">      0.12340000</i>
   <i name="PARAM2">      1.00000000</i>
   <i name="BPARAM">      6.30000000</i>
   <i name="CPARAM">      0.00930000</i>
  </separator>
  <separator name="model GW" >
   <i type="int" name="MODEL_GW">     0</i>
   <i name="MODEL_EPS0">     19.96441529</i>
   <i name="MODEL_ALPHA">      1.00000000</i>
  </separator>
  <separator name="linear response parameters" >
   <i type="logical" name="LEPSILON"> F  </i>
   <i type="logical" name="LRPA"> F  </i>
   <i type="logical" name="LNABLA"> F  </i>
   <i type="logical" name="LVEL"> F  </i>
   <i name="CSHIFT">      0.10000000</i>
   <i name="OMEGAMAX">     -1.00000000</i>
   <i name="DEG_THRESHOLD">      0.00200000</i>
   <i name="RTIME">     -0.10000000</i>
   <i name="WPLASMAI">      0.00000000</i>
   <v name="DFIELD">      0.00000000      0.00000000      0.00000000</v>
   <v name="WPLASMA">      0.00000000      0.00000000      0.00000000      0.00000000      0.00000000      0.00000000      0.00000000      0.00000000      0.00000000</v>
  </separator>
  <separator name="orbital magnetization" >
   <i type="logical" name="NUCIND"> F  </i>
   <v name="MAGPOS">      0.00000000      0.00000000      0.00000000</v>
   <i type="logical" name="LNICSALL"> T  </i>
   <i type="logical" name="ORBITALMAG"> F  </i>
   <i type="logical" name="LMAGBLOCH"> F  </i>
   <i type="logical" name="LCHIMAG"> F  </i>
   <i type="logical" name="LGAUGE"> T  </i>
   <i type="int" name="MAGATOM">     0</i>
   <v name="MAGDIPOL">      0.00000000      0.00000000      0.00000000</v>
   <v name="AVECCONST">      0.00000000      0.00000000      0.00000000</v>
  </separator>
  <separator name="response functions" >
   <i type="logical" name="LALL_IN_ONE"> F  </i>
   <i type="int" name="IALL_IN_ONE">    -1</i>
   <i type="int" name="NBANDS_WAVE">    -1</i>
   <i type="logical" name="LFINITE_TEMPERATURE"> F  </i>
   <i type="logical" name="LADDER"> F  </i>
   <i type="logical" name="LRPAFORCE"> F  </i>
   <i type="logical" name="LFXC"> F  </i>
   <i type="logical" name="LHARTREE"> T  </i>
   <i type="int" name="IBSE">     2</i>
   <v type="int" name="KPOINT">    -1     0     0     0</v>
   <i type="logical" name="LTCTC"> F  </i>
   <i type="logical" name="LTCTE"> F  </i>
   <i type="logical" name="LTETE"> F  </i>
   <i type="logical" name="LTRIPLET"> F  </i>
   <i type="logical" name="LFXCEPS"> F  </i>
   <i type="logical" name="LFXHEG"> F  </i>
   <i type="int" name="NATURALO">     2</i>
   <i type="logical" name="LHOLEGF"> F  </i>
   <i type="logical" name="L2ORDER"> F  </i>
   <i type="logical" name="LDMP1"> F  </i>
   <i type="logical" name="LMP2LT"> F  </i>
   <i type="logical" name="LSMP2LT"> F  </i>
   <i type="logical" name="LGWLF"> F  </i>
   <i name="ENCUTGW">     -1.60000002</i>
   <i name="ENCUTGWSOFT">     -1.60000002</i>
   <i name="ENCUTLF">     -1.00000000</i>
   <i type="logical" name="ESF_SPLINES"> F  </i>
   <i name="ESF_CONV">      0.01000000</i>
   <i type="int" name="ESF_NINTER">    15</i>
   <i type="int" name="LMAXMP2">    -1</i>
   <i name="SCISSOR">      0.00000000</i>
   <i type="int" name="NOMEGA">     0</i>
   <i type="int" name="NOMEGAR">     0</i>
   <i type="int" name="NBANDSGW">    -1</i>
   <i type="int" name="NBANDSO">    -1</i>
   <i type="int" name="NBANDSV">    -1</i>
   <i type="int" name="NELMGW">     1</i>
   <i type="int" name="NELMHF">     1</i>
   <i type="int" name="DIM">     3</i>
   <i type="int" name="IESPILON">     4</i>
   <i type="int" name="ANTIRES">     0</i>
   <i name="OMEGAMAX">    -30.00000000</i>
   <i name="OMEGAMIN">    -30.00000000</i>
   <i name="OMEGATL">   -200.00000000</i>
   <i type="int" name="OMEGAGRID">     0</i>
   <i name="CSHIFT">     -0.10000000</i>
   <i type="logical" name="LSELFENERGY"> F  </i>
   <i type="logical" name="LSPECTRAL"> F  </i>
   <i type="logical" name="LSPECTRALGW"> F  </i>
   <i type="logical" name="LSINGLES"> F  </i>
   <i type="logical" name="LFERMIGW"> F  </i>
   <i type="logical" name="ODDONLYGW"> F  </i>
   <i type="logical" name="EVENONLYGW"> F  </i>
   <i type="int" name="NKREDLFX">     1</i>
   <i type="int" name="NKREDLFY">     1</i>
   <i type="int" name="NKREDLFZ">     1</i>
   <i type="int" name="MAXMEM">  2800</i>
   <i type="int" name="TELESCOPE">     0</i>
   <i type="int" name="NTAUPAR">    -1</i>
   <i type="int" name="NOMEGAPAR">    -1</i>
   <i name="DAMP_NEWTON">      0.80000001</i>
   <i name="LAMBDA">      1.00000000</i>
  </separator>
  <separator name="External order field" >
   <i name="OFIELD_KAPPA">      0.00000000</i>
   <v name="OFIELD_K">      0.00000000      0.00000000      0.00000000</v>
   <i name="OFIELD_Q6_NEAR">      0.00000000</i>
   <i name="OFIELD_Q6_FAR">      0.00000000</i>
   <i name="OFIELD_A">      0.00000000</i>
  </separator>
  <separator name="optional k-points parameters" >
   <i type="int" name="KPOINTS_OPT_MODE">     1</i>
   <i type="logical" name="LKPOINTS_OPT"> F  </i>
  </separator>
 </parameters>
 <atominfo>
  <atoms>      52 </atoms>
  <types>      16 </types>
  <array name="atoms" >
   <dimension dim="1">ion</dimension>
   <field type="string">element</field>
   <field type="int">atomtype</field>
   <set>
    <rc><c>Cu</c><c>   1</c></rc>
    <rc><c>Cu</c><c>   1</c></rc>
    <rc><c>Cu</c><c>   1</c></rc>
    <rc><c>Cu</c><c>   1</c></rc>
    <rc><c>Cu</c><c>   1</c></rc>
    <rc><c>Cu</c><c>   1</c></rc>
    <rc><c>Cu</c><c>   1</c></rc>
    <rc><c>Cu</c><c>   1</c></rc>
    <rc><c>Cu</c><c>   1</c></rc>
    <rc><c>Cu</c><c>   1</c></rc>
    <rc><c>Cu</c><c>   1</c></rc>
    <rc><c>Cu</c><c>   1</c></rc>
    <rc><c>Cu</c><c>   1</c></rc>
    <rc><c>Cu</c><c>   1</c></rc>
    <rc><c>Cu</c><c>   1</c></rc>
    <rc><c>Cu</c><c>   1</c></rc>
    <rc><c>Cu</c><c>   1</c></rc>
    <rc><c>Cu</c><c>   1</c></rc>
    <rc><c>Cu</c><c>   1</c></rc>
    <rc><c>Cu</c><c>   1</c></rc>
    <rc><c>Cu</c><c>   1</c></rc>
    <rc><c>Cu</c><c>   1</c></rc>
    <rc><c>Cu</c><c>   1</c></rc>
    <rc><c>Cu</c><c>   1</c></rc>
    <rc><c>Cu</c><c>   1</c></rc>
    <rc><c>Cu</c><c>   1</c></rc>
    <rc><c>Cu</c><c>   1</c></rc>
    <rc><c>Cu</c><c>   1</c></rc>
    <rc><c>Cu</c><c>   1</c></rc>
    <rc><c>Cu</c><c>   1</c></rc>
    <rc><c>Cu</c><c>   1</c></rc>
    <rc><c>Cu</c><c>   1</c></rc>
    <rc><c>Cu</c><c>   1</c></rc>
    <rc><c>Cu</c><c>   1</c></rc>
    <rc><c>Cu</c><c>   1</c></rc>
    <rc><c>Cu</c><c>   1</c></rc>
    <rc><c>O </c><c>   2</c></rc>
    <rc><c>C </c><c>   3</c></rc>
    <rc><c>C </c><c>   3</c></rc>
    <rc><c>O </c><c>   4</c></rc>
    <rc><c>C </c><c>   5</c></rc>
    <rc><c>O </c><c>   6</c></rc>
    <rc><c>C </c><c>   7</c></rc>
    <rc><c>O </c><c>   8</c></rc>
    <rc><c>C </c><c>   9</c></rc>
    <rc><c>O </c><c>  10</c></rc>
    <rc><c>C </c><c>  11</c></rc>
    <rc><c>O </c><c>  12</c></rc>
    <rc><c>C </c><c>  13</c></rc>
    <rc><c>O </c><c>  14</c></rc>
    <rc><c>C </c><c>  15</c></rc>
    <rc><c>O </c><c>  16</c></rc>
   </set>
  </array>
  <array name="atomtypes" >
   <dimension dim="1">type</dimension>
   <field type="int">atomspertype</field>
   <field type="string">element</field>
   <field>mass</field>
   <field>valence</field>
   <field type="string">pseudopotential</field>
   <set>
    <rc><c>  36</c><c>Cu</c><c>     63.54600000</c><c>     11.00000000</c><c>  PAW_PBE Cu 22Jun2005                  </c></rc>
    <rc><c>   1</c><c>O </c><c>     16.00000000</c><c>      6.00000000</c><c>  PAW_PBE O 08Apr2002                   </c></rc>
    <rc><c>   2</c><c>C </c><c>     12.01100000</c><c>      4.00000000</c><c>  PAW_PBE C 08Apr2002                   </c></rc>
    <rc><c>   1</c><c>O </c><c>     16.00000000</c><c>      6.00000000</c><c>  PAW_PBE O 08Apr2002                   </c></rc>
    <rc><c>   1</c><c>C </c><c>     12.01100000</c><c>      4.00000000</c><c>  PAW_PBE C 08Apr2002                   </c></rc>
    <rc><c>   1</c><c>O </c><c>     16.00000000</c><c>      6.00000000</c><c>  PAW_PBE O 08Apr2002                   </c></rc>
    <rc><c>   1</c><c>C </c><c>     12.01100000</c><c>      4.00000000</c><c>  PAW_PBE C 08Apr2002                   </c></rc>
    <rc><c>   1</c><c>O </c><c>     16.00000000</c><c>      6.00000000</c><c>  PAW_PBE O 08Apr2002                   </c></rc>
    <rc><c>   1</c><c>C </c><c>     12.01100000</c><c>      4.00000000</c><c>  PAW_PBE C 08Apr2002                   </c></rc>
    <rc><c>   1</c><c>O </c><c>     16.00000000</c><c>      6.00000000</c><c>  PAW_PBE O 08Apr2002                   </c></rc>
    <rc><c>   1</c><c>C </c><c>     12.01100000</c><c>      4.00000000</c><c>  PAW_PBE C 08Apr2002                   </c></rc>
    <rc><c>   1</c><c>O </c><c>     16.00000000</c><c>      6.00000000</c><c>  PAW_PBE O 08Apr2002                   </c></rc>
    <rc><c>   1</c><c>C </c><c>     12.01100000</c><c>      4.00000000</c><c>  PAW_PBE C 08Apr2002                   </c></rc>
    <rc><c>   1</c><c>O </c><c>     16.00000000</c><c>      6.00000000</c><c>  PAW_PBE O 08Apr2002                   </c></rc>
    <rc><c>   1</c><c>C </c><c>     12.01100000</c><c>      4.00000000</c><c>  PAW_PBE C 08Apr2002                   </c></rc>
    <rc><c>   1</c><c>O </c><c>     16.00000000</c><c>      6.00000000</c><c>  PAW_PBE O 08Apr2002                   </c></rc>
   </set>
  </array>
 </atominfo>
 <structure name="initialpos" >
  <crystal>
   <varray name="basis" >
    <v>       7.66857304       0.00000000       0.00000000 </v>
    <v>       0.00000000       7.66857304       0.00000000 </v>
    <v>       0.00000000       0.00000000      29.42250000 </v>
   </varray>
   <i name="volume">   1730.24932528 </i>
   <varray name="rec_basis" >
    <v>       0.13040236       0.00000000       0.00000000 </v>
    <v>       0.00000000       0.13040236       0.00000000 </v>
    <v>       0.00000000       0.00000000       0.03398759 </v>
   </varray>
  </crystal>
  <varray name="positions" >
   <v>       0.16666667       0.16666667       0.40785113 </v>
   <v>       0.50000000       0.16666667       0.40785113 </v>
   <v>       0.83333333       0.16666667       0.40785113 </v>
   <v>       0.16666667       0.50000000       0.40785113 </v>
   <v>       0.50000000       0.50000000       0.40785113 </v>
   <v>       0.83333333       0.50000000       0.40785113 </v>
   <v>       0.16666667       0.83333333       0.40785113 </v>
   <v>       0.50000000       0.83333333       0.40785113 </v>
   <v>       0.83333333       0.83333333       0.40785113 </v>
   <v>       0.00000000       0.00000000       0.46928371 </v>
   <v>       0.33333333       0.00000000       0.46928371 </v>
   <v>       0.66666667       0.00000000       0.46928371 </v>
   <v>       0.00000000       0.33333333       0.46928371 </v>
   <v>       0.33333333       0.33333333       0.46928371 </v>
   <v>       0.66666667       0.33333333       0.46928371 </v>
   <v>       0.00000000       0.66666667       0.46928371 </v>
   <v>       0.33333333       0.66666667       0.46928371 </v>
   <v>       0.66666667       0.66666667       0.46928371 </v>
   <v>       0.16666667       0.16666667       0.53071629 </v>
   <v>       0.50000000       0.16666667       0.53071629 </v>
   <v>       0.83333333       0.16666667       0.53071629 </v>
   <v>       0.16666667       0.50000000       0.53071629 </v>
   <v>       0.50000000       0.50000000       0.53071629 </v>
   <v>       0.83333333       0.50000000       0.53071629 </v>
   <v>       0.16666667       0.83333333       0.53071629 </v>
   <v>       0.50000000       0.83333333       0.53071629 </v>
   <v>       0.83333333       0.83333333       0.53071629 </v>
   <v>       0.00000000       0.00000000       0.59214887 </v>
   <v>       0.33333333       0.00000000       0.59214887 </v>
   <v>       0.66666667       0.00000000       0.59214887 </v>
   <v>       0.00000000       0.33333333       0.59214887 </v>
   <v>       0.33333333       0.33333333       0.59214887 </v>
   <v>       0.66666667       0.33333333       0.59214887 </v>
   <v>       0.00000000       0.66666667       0.59214887 </v>
   <v>       0.33333333       0.66666667       0.59214887 </v>
   <v>       0.66666667       0.66666667       0.59214887 </v>
   <v>       0.16666667       0.23553157       0.68731413 </v>
   <v>       0.16666667       0.28443245       0.64992778 </v>
   <v>       0.16666667       0.38223422       0.64992778 </v>
   <v>       0.16666667       0.43113510       0.68731413 </v>
   <v>       0.16666667       0.83333333       0.73829552 </v>
   <v>       0.16666667       0.83333333       0.77772113 </v>
   <v>       0.50000000       0.16666667       0.73829552 </v>
   <v>       0.50000000       0.16666667       0.77772113 </v>
   <v>       0.50000000       0.50000000       0.73829552 </v>
   <v>       0.50000000       0.50000000       0.77772113 </v>
   <v>       0.50000000       0.83333333       0.73829552 </v>
   <v>       0.50000000       0.83333333       0.77772113 </v>
   <v>       0.83333333       0.16666667       0.73829552 </v>
   <v>       0.83333333       0.16666667       0.77772113 </v>
   <v>       0.83333333       0.50000000       0.73829552 </v>
   <v>       0.83333333       0.50000000       0.77772113 </v>
  </varray>
  <varray name="selective"  type="logical" >
   <v type="logical" >  F  F  F </v>
   <v type="logical" >  F  F  F </v>
   <v type="logical" >  F  F  F </v>
   <v type="logical" >  F  F  F </v>
   <v type="logical" >  F  F  F </v>
   <v type="logical" >  F  F  F </v>
   <v type="logical" >  F  F  F </v>
   <v type="logical" >  F  F  F </v>
   <v type="logical" >  F  F  F </v>
   <v type="logical" >  F  F  F </v>
   <v type="logical" >  F  F  F </v>
   <v type="logical" >  F  F  F </v>
   <v type="logical" >  F  F  F </v>
   <v type="logical" >  F  F  F </v>
   <v type="logical" >  F  F  F </v>
   <v type="logical" >  F  F  F </v>
   <v type="logical" >  F  F  F </v>
   <v type="logical" >  F  F  F </v>
   <v type="logical" >  T  T  T </v>
   <v type="logical" >  T  T  T </v>
   <v type="logical" >  T  T  T </v>
   <v type="logical" >  T  T  T </v>
   <v type="logical" >  T  T  T </v>
   <v type="logical" >  T  T  T </v>
   <v type="logical" >  T  T  T </v>
   <v type="logical" >  T  T  T </v>
   <v type="logical" >  T  T  T </v>
   <v type="logical" >  T  T  T </v>
   <v type="logical" >  T  T  T </v>
   <v type="logical" >  T  T  T </v>
   <v type="logical" >  T  T  T </v>
   <v type="logical" >  T  T  T </v>
   <v type="logical" >  T  T  T </v>
   <v type="logical" >  T  T  T </v>
   <v type="logical" >  T  T  T </v>
   <v type="logical" >  T  T  T </v>
   <v type="logical" >  T  T  T </v>
   <v type="logical" >  T  T  T </v>
   <v type="logical" >  T  T  T </v>
   <v type="logical" >  T  T  T </v>
   <v type="logical" >  T  T  T </v>
   <v type="logical" >  T  T  T </v>
   <v type="logical" >  T  T  T </v>
   <v type="logical" >  T  T  T </v>
   <v type="logical" >  T  T  T </v>
   <v type="logical" >  T  T  T </v>
   <v type="logical" >  T  T  T </v>
   <v type="logical" >  T  T  T </v>
   <v type="logical" >  T  T  T </v>
   <v type="logical" >  T  T  T </v>
   <v type="logical" >  T  T  T </v>
   <v type="logical" >  T  T  T </v>
  </varray>
  <nose>
   <v>      -3.00000000       0.00000000       0.00010000       0.00010000 </v>
  </nose>
 </structure>
 <calculation>
  <scstep>
   <time name="dav">    3.21    3.22</time>
   <time name="total">    3.28    3.28</time>
   <energy>
    <i name="alphaZ">    754.61352816 </i>
    <i name="ewald"> 307187.01771788 </i>
    <i name="hartreedc">-358774.80233889 </i>
    <i name="XCdc">   1936.64832156 </i>
    <i name="pawpsdc">  47888.37559188 </i>
    <i name="pawaedc"> -51678.97714626 </i>
    <i name="eentropy">     -0.04821610 </i>
    <i name="bandstr">   3045.87833874 </i>
    <i name="atom">  54673.92782889 </i>
    <i name="e_fr_energy">   5032.63362587 </i>
    <i name="e_wo_entrp">   5032.68184197 </i>
    <i name="e_0_energy">   5032.65773392 </i>
   </energy>
  </scstep>
  <scstep>
   <time name="dav">    3.12    3.12</time>
   <time name="total">    3.12    3.12</time>
   <energy>
    <i name="e_fr_energy">    938.00986169 </i>
    <i name="e_wo_entrp">    938.09162457 </i>
    <i name="e_0_energy">    938.05074313 </i>
   </energy>
  </scstep>
  <scstep>
   <time name="dav">    4.11    4.12</time>
   <time name="total">    4.11    4.12</time>
   <energy>
    <i name="e_fr_energy">      5.83262123 </i>
    <i name="e_wo_entrp">      5.91275585 </i>
    <i name="e_0_energy">      5.87268854 </i>
   </energy>
  </scstep>
  <scstep>
   <time name="dav">    4.68    4.70</time>
   <time name="total">    4.68    4.70</time>
   <energy>
    <i name="e_fr_energy">   -209.22743979 </i>
    <i name="e_wo_entrp">   -209.10541361 </i>
    <i name="e_0_energy">   -209.16642670 </i>
   </energy>
  </scstep>
  <scstep>
   <time name="dav">    4.54    4.56</time>
   <time name="total">    4.76    4.77</time>
   <energy>
    <i name="e_fr_energy">   -226.64472792 </i>
    <i name="e_wo_entrp">   -226.44757570 </i>
    <i name="e_0_energy">   -226.54615181 </i>
   </energy>
  </scstep>
  <scstep>
   <time name="dav">    3.94    3.95</time>
   <time name="total">    4.20    4.22</time>
   <energy>
    <i name="e_fr_energy">   -254.36026325 </i>
    <i name="e_wo_entrp">   -254.23610966 </i>
    <i name="e_0_energy">   -254.29818646 </i>
   </energy>
  </scstep>
  <scstep>
   <time name="dav">    4.07    4.08</time>
   <time name="total">    4.33    4.34</time>
   <energy>
    <i name="e_fr_energy">   -231.20832774 </i>
    <i name="e_wo_entrp">   -230.67694396 </i>
    <i name="e_0_energy">   -230.94263585 </i>
   </energy>
  </scstep>
  <scstep>
   <time name="dav">    4.92    4.93</time>
   <time name="total">    5.19    5.20</time>
   <energy>
    <i name="e_fr_energy">   -188.00334772 </i>
    <i name="e_wo_entrp">   -187.94590255 </i>
    <i name="e_0_energy">   -187.97462513 </i>
   </energy>
  </scstep>
  <scstep>
   <time name="dav">    4.72    4.73</time>
   <time name="total">    4.99    5.00</time>
   <energy>
    <i name="e_fr_energy">   -175.71433739 </i>
    <i name="e_wo_entrp">   -175.65486049 </i>
    <i name="e_0_energy">   -175.68459894 </i>
   </energy>
  </scstep>
  <scstep>
   <time name="dav">    3.80    3.81</time>
   <time name="total">    4.07    4.08</time>
   <energy>
    <i name="e_fr_energy">   -174.71564859 </i>
    <i name="e_wo_entrp">   -174.65686173 </i>
    <i name="e_0_energy">   -174.68625516 </i>
   </energy>
  </scstep>
  <scstep>
   <time name="dav">    3.77    3.78</time>
   <time name="total">    4.04    4.05</time>
   <energy>
    <i name="e_fr_energy">   -173.48577292 </i>
    <i name="e_wo_entrp">   -173.42511029 </i>
    <i name="e_0_energy">   -173.45544161 </i>
   </energy>
  </scstep>
  <scstep>
   <time name="dav">    4.62    4.63</time>
   <time name="total">    4.89    4.90</time>
   <energy>
    <i name="e_fr_energy">   -173.10554125 </i>
    <i name="e_wo_entrp">   -173.04367397 </i>
    <i name="e_0_energy">   -173.07460761 </i>
   </energy>
  </scstep>
  <scstep>
   <time name="dav">    3.86    3.87</time>
   <time name="total">    4.13    4.14</time>
   <energy>
    <i name="e_fr_energy">   -173.18806239 </i>
    <i name="e_wo_entrp">   -173.12486704 </i>
    <i name="e_0_energy">   -173.15646472 </i>
   </energy>
  </scstep>
  <scstep>
   <time name="dav">    3.60    3.61</time>
   <time name="total">    3.87    3.88</time>
   <energy>
    <i name="e_fr_energy">   -173.16943910 </i>
    <i name="e_wo_entrp">   -173.10852253 </i>
    <i name="e_0_energy">   -173.13898082 </i>
   </energy>
  </scstep>
  <scstep>
   <time name="dav">    5.18    5.19</time>
   <time name="total">    5.45    5.46</time>
   <energy>
    <i name="e_fr_energy">   -173.12412055 </i>
    <i name="e_wo_entrp">   -173.06167496 </i>
    <i name="e_0_energy">   -173.09289776 </i>
   </energy>
  </scstep>
  <scstep>
   <time name="dav">    4.59    4.59</time>
   <time name="total">    4.85    4.86</time>
   <energy>
    <i name="e_fr_energy">   -173.10628201 </i>
    <i name="e_wo_entrp">   -173.04520382 </i>
    <i name="e_0_energy">   -173.07574291 </i>
   </energy>
  </scstep>
  <scstep>
   <time name="dav">    3.70    3.71</time>
   <time name="total">    3.97    3.98</time>
   <energy>
    <i name="e_fr_energy">   -173.10110608 </i>
    <i name="e_wo_entrp">   -173.03963311 </i>
    <i name="e_0_energy">   -173.07036959 </i>
   </energy>
  </scstep>
  <scstep>
   <time name="dav">    3.98    3.99</time>
   <time name="total">    4.25    4.26</time>
   <energy>
    <i name="e_fr_energy">   -173.08801985 </i>
    <i name="e_wo_entrp">   -173.02705490 </i>
    <i name="e_0_energy">   -173.05753737 </i>
   </energy>
  </scstep>
  <scstep>
   <time name="dav">    4.14    4.15</time>
   <time name="total">    4.41    4.42</time>
   <energy>
    <i name="e_fr_energy">   -173.07899956 </i>
    <i name="e_wo_entrp">   -173.01890785 </i>
    <i name="e_0_energy">   -173.04895371 </i>
   </energy>
  </scstep>
  <scstep>
   <time name="dav">    4.45    4.45</time>
   <time name="total">    4.72    4.73</time>
   <energy>
    <i name="e_fr_energy">   -173.07438077 </i>
    <i name="e_wo_entrp">   -173.01435115 </i>
    <i name="e_0_energy">   -173.04436596 </i>
   </energy>
  </scstep>
  <scstep>
   <time name="dav">    4.50    4.51</time>
   <time name="total">    4.77    4.78</time>
   <energy>
    <i name="e_fr_energy">   -173.07167833 </i>
    <i name="e_wo_entrp">   -173.01162533 </i>
    <i name="e_0_energy">   -173.04165183 </i>
   </energy>
  </scstep>
  <scstep>
   <time name="dav">    4.90    4.91</time>
   <time name="total">    5.17    5.18</time>
   <energy>
    <i name="e_fr_energy">   -173.06524493 </i>
    <i name="e_wo_entrp">   -173.00539589 </i>
    <i name="e_0_energy">   -173.03532041 </i>
   </energy>
  </scstep>
  <scstep>
   <time name="dav">    4.48    4.49</time>
   <time name="total">    4.76    4.77</time>
   <energy>
    <i name="e_fr_energy">   -173.06165356 </i>
    <i name="e_wo_entrp">   -173.00196692 </i>
    <i name="e_0_energy">   -173.03181024 </i>
   </energy>
  </scstep>
  <scstep>
   <time name="dav">    4.37    4.38</time>
   <time name="total">    4.65    4.66</time>
   <energy>
    <i name="e_fr_energy">   -173.06106011 </i>
    <i name="e_wo_entrp">   -173.00153851 </i>
    <i name="e_0_energy">   -173.03129931 </i>
   </energy>
  </scstep>
  <scstep>
   <time name="dav">    4.44    4.45</time>
   <time name="total">    4.71    4.72</time>
   <energy>
    <i name="e_fr_energy">   -173.06052977 </i>
    <i name="e_wo_entrp">   -173.00119411 </i>
    <i name="e_0_energy">   -173.03086194 </i>
   </energy>
  </scstep>
  <scstep>
   <time name="dav">    4.49    4.50</time>
   <time name="total">    4.77    4.78</time>
   <energy>
    <i name="e_fr_energy">   -173.06050920 </i>
    <i name="e_wo_entrp">   -173.00120108 </i>
    <i name="e_0_energy">   -173.03085514 </i>
   </energy>
  </scstep>
  <scstep>
   <time name="dav">    4.05    4.06</time>
   <time name="total">    4.33    4.34</time>
   <energy>
    <i name="e_fr_energy">   -173.06060332 </i>
    <i name="e_wo_entrp">   -173.00132323 </i>
    <i name="e_0_energy">   -173.03096327 </i>
   </energy>
  </scstep>
  <scstep>
   <time name="dav">    3.81    3.82</time>
   <time name="total">    4.09    4.11</time>
   <energy>
    <i name="e_fr_energy">   -173.06064598 </i>
    <i name="e_wo_entrp">   -173.00138514 </i>
    <i name="e_0_energy">   -173.03101556 </i>
   </energy>
  </scstep>
  <scstep>
   <time name="dav">    4.26    4.26</time>
   <time name="total">    4.54    4.55</time>
   <energy>
    <i name="e_fr_energy">   -173.06071486 </i>
    <i name="e_wo_entrp">   -173.00146025 </i>
    <i name="e_0_energy">   -173.03108755 </i>
   </energy>
  </scstep>
  <scstep>
   <time name="dav">    3.74    3.75</time>
   <time name="total">    4.02    4.03</time>
   <energy>
    <i name="e_fr_energy">   -173.06086620 </i>
    <i name="e_wo_entrp">   -173.00160582 </i>
    <i name="e_0_energy">   -173.03123601 </i>
   </energy>
  </scstep>
  <scstep>
   <time name="dav">    2.68    2.68</time>
   <time name="total">    2.96    2.97</time>
   <energy>
    <i name="e_fr_energy">   -173.06088535 </i>
    <i name="e_wo_entrp">   -173.00162700 </i>
    <i name="e_0_energy">   -173.03125617 </i>
   </energy>
  </scstep>
  <scstep>
   <time name="dav">    2.48    2.48</time>
   <time name="total">    2.76    2.76</time>
   <energy>
    <i name="e_fr_energy">   -173.06090579 </i>
    <i name="e_wo_entrp">   -173.00164933 </i>
    <i name="e_0_energy">   -173.03127756 </i>
   </energy>
  </scstep>
  <scstep>
   <time name="dav">    3.15    3.15</time>
   <time name="total">    3.43    3.44</time>
   <energy>
    <i name="e_fr_energy">   -173.06095144 </i>
    <i name="e_wo_entrp">   -173.00169103 </i>
    <i name="e_0_energy">   -173.03132123 </i>
   </energy>
  </scstep>
  <scstep>
   <time name="dav">    2.66    2.67</time>
   <time name="total">    2.95    2.95</time>
   <energy>
    <i name="e_fr_energy">   -173.06096050 </i>
    <i name="e_wo_entrp">   -173.00169952 </i>
    <i name="e_0_energy">   -173.03133001 </i>
   </energy>
  </scstep>
  <scstep>
   <time name="dav">    2.33    2.33</time>
   <time name="total">    2.62    2.62</time>
   <energy>
    <i name="e_fr_energy">   -173.06096666 </i>
    <i name="e_wo_entrp">   -173.00170602 </i>
    <i name="e_0_energy">   -173.03133634 </i>
   </energy>
  </scstep>
  <scstep>
   <time name="dav">    2.34    2.35</time>
   <time name="total">    2.64    2.64</time>
   <energy>
    <i name="e_fr_energy">   -173.06097079 </i>
    <i name="e_wo_entrp">   -173.00170986 </i>
    <i name="e_0_energy">   -173.03134032 </i>
   </energy>
  </scstep>
  <scstep>
   <time name="dav">    2.30    2.30</time>
   <time name="total">    2.59    2.59</time>
   <energy>
    <i name="e_fr_energy">   -173.06097392 </i>
    <i name="e_wo_entrp">   -173.00171387 </i>
    <i name="e_0_energy">   -173.03134390 </i>
   </energy>
  </scstep>
  <scstep>
   <time name="dav">    2.26    2.27</time>
   <time name="total">    2.31    2.32</time>
   <energy>
    <i name="alphaZ">    754.61352816 </i>
    <i name="ewald"> 307187.01771788 </i>
    <i name="hartreedc">-358469.38044535 </i>
    <i name="XCdc">   1914.68962931 </i>
    <i name="pawpsdc">  55605.52096445 </i>
    <i name="pawaedc"> -59469.42808354 </i>
    <i name="eentropy">     -0.05925979 </i>
    <i name="bandstr">  -2369.96285433 </i>
    <i name="atom">  54673.92782889 </i>
    <i name="e_fr_energy">   -173.06097434 </i>
    <i name="e_wo_entrp">   -173.00171455 </i>
    <i name="e_0_energy">   -173.03134444 </i>
   </energy>
  </scstep>
  <structure>
   <crystal>
    <varray name="basis" >
     <v>       7.66857304       0.00000000       0.00000000 </v>
     <v>       0.00000000       7.66857304       0.00000000 </v>
     <v>       0.00000000       0.00000000      29.42250000 </v>
    </varray>
    <i name="volume">   1730.24932528 </i>
    <varray name="rec_basis" >
     <v>       0.13040236       0.00000000       0.00000000 </v>
     <v>       0.00000000       0.13040236       0.00000000 </v>
     <v>       0.00000000       0.00000000       0.03398759 </v>
    </varray>
   </crystal>
   <varray name="positions" >
    <v>       0.16666667       0.16666667       0.40785113 </v>
    <v>       0.50000000       0.16666667       0.40785113 </v>
    <v>       0.83333333       0.16666667       0.40785113 </v>
    <v>       0.16666667       0.50000000       0.40785113 </v>
    <v>       0.50000000       0.50000000       0.40785113 </v>
    <v>       0.83333333       0.50000000       0.40785113 </v>
    <v>       0.16666667       0.83333333       0.40785113 </v>
    <v>       0.50000000       0.83333333       0.40785113 </v>
    <v>       0.83333333       0.83333333       0.40785113 </v>
    <v>       0.00000000       0.00000000       0.46928371 </v>
    <v>       0.33333333       0.00000000       0.46928371 </v>
    <v>       0.66666667       0.00000000       0.46928371 </v>
    <v>       0.00000000       0.33333333       0.46928371 </v>
    <v>       0.33333333       0.33333333       0.46928371 </v>
    <v>       0.66666667       0.33333333       0.46928371 </v>
    <v>       0.00000000       0.66666667       0.46928371 </v>
    <v>       0.33333333       0.66666667       0.46928371 </v>
    <v>       0.66666667       0.66666667       0.46928371 </v>
    <v>       0.16666667       0.16666667       0.53071629 </v>
    <v>       0.50000000       0.16666667       0.53071629 </v>
    <v>       0.83333333       0.16666667       0.53071629 </v>
    <v>       0.16666667       0.50000000       0.53071629 </v>
    <v>       0.50000000       0.50000000       0.53071629 </v>
    <v>       0.83333333       0.50000000       0.53071629 </v>
    <v>       0.16666667       0.83333333       0.53071629 </v>
    <v>       0.50000000       0.83333333       0.53071629 </v>
    <v>       0.83333333       0.83333333       0.53071629 </v>
    <v>       0.00000000       0.00000000       0.59214887 </v>
    <v>       0.33333333       0.00000000       0.59214887 </v>
    <v>       0.66666667       0.00000000       0.59214887 </v>
    <v>       0.00000000       0.33333333       0.59214887 </v>
    <v>       0.33333333       0.33333333       0.59214887 </v>
    <v>       0.66666667       0.33333333       0.59214887 </v>
    <v>       0.00000000       0.66666667       0.59214887 </v>
    <v>       0.33333333       0.66666667       0.59214887 </v>
    <v>       0.66666667       0.66666667       0.59214887 </v>
    <v>       0.16666667       0.23553157       0.68731413 </v>
    <v>       0.16666667       0.28443245       0.64992778 </v>
    <v>       0.16666667       0.38223422       0.64992778 </v>
    <v>       0.16666667       0.43113510       0.68731413 </v>
    <v>       0.16666667       0.83333333       0.73829552 </v>
    <v>       0.16666667       0.83333333       0.77772113 </v>
    <v>       0.50000000       0.16666667       0.73829552 </v>
    <v>       0.50000000       0.16666667       0.77772113 </v>
    <v>       0.50000000       0.50000000       0.73829552 </v>
    <v>       0.50000000       0.50000000       0.77772113 </v>
    <v>       0.50000000       0.83333333       0.73829552 </v>
    <v>       0.50000000       0.83333333       0.77772113 </v>
    <v>       0.83333333       0.16666667       0.73829552 </v>
    <v>       0.83333333       0.16666667       0.77772113 </v>
    <v>       0.83333333       0.50000000       0.73829552 </v>
    <v>       0.83333333       0.50000000       0.77772113 </v>
   </varray>
  </structure>
  <varray name="forces" >
   <v>       0.00549025       0.00025549      -0.09037454 </v>
   <v>      -0.00557658       0.04770890      -0.12042520 </v>
   <v>      -0.00033430       0.04356654      -0.11992482 </v>
   <v>       0.00964011       0.00402710      -0.08979389 </v>
   <v>      -0.00557753      -0.03920377      -0.12006965 </v>
   <v>      -0.00447872      -0.03922994      -0.11940458 </v>
   <v>       0.00541667      -0.00485356      -0.09173595 </v>
   <v>      -0.01338477      -0.00903072      -0.11855495 </v>
   <v>       0.00757498      -0.00485710      -0.11990716 </v>
   <v>       0.02269127       0.00505401      -0.25763988 </v>
   <v>      -0.02811570       0.00502846      -0.25381659 </v>
   <v>       0.00503456       0.00107302      -0.20204602 </v>
   <v>      -0.00748388      -0.00492741      -0.21100787 </v>
   <v>       0.00324659      -0.00389509      -0.20948106 </v>
   <v>       0.00372424      -0.00390302      -0.31434513 </v>
   <v>       0.02269859      -0.00069142      -0.25226317 </v>
   <v>      -0.02708697      -0.00167284      -0.25228615 </v>
   <v>       0.00403105       0.00226332      -0.20043601 </v>
   <v>       0.00366910      -0.03467511      -0.02956852 </v>
   <v>      -0.03780403       0.07813379       0.23749156 </v>
   <v>       0.03366086       0.07833101       0.23563150 </v>
   <v>       0.00470076       0.03797611      -0.02790980 </v>
   <v>      -0.03779352      -0.07378565       0.24300103 </v>
   <v>       0.03266786      -0.07503154       0.23724166 </v>
   <v>       0.00508732      -0.00381887       0.18728710 </v>
   <v>      -0.04655164      -0.00479962       0.28642977 </v>
   <v>       0.04127814      -0.00381097       0.28741190 </v>
   <v>       0.03737265      -0.02847128       0.16666392 </v>
   <v>      -0.05026975      -0.02533655       0.16196135 </v>
   <v>       0.01241876      -0.01346188       0.11327462 </v>
   <v>      -0.49177773      -0.00928480      -0.11822833 </v>
   <v>       0.48808049      -0.00478721      -0.11944960 </v>
   <v>       0.00529718      -0.00491578       0.00956275 </v>
   <v>       0.03736687       0.03707189       0.16697718 </v>
   <v>      -0.04610586       0.02980595       0.16257795 </v>
   <v>       0.00825841       0.01784200       0.11383859 </v>
   <v>       0.00032175     -13.81496411      17.66010873 </v>
   <v>      -0.00200830    -218.39692856     -17.35554410 </v>
   <v>       0.00282859     218.40033856     -17.35582063 </v>
   <v>       0.00530700      13.81838575      17.65907670 </v>
   <v>      -0.56937320       0.00323767       1.30065668 </v>
   <v>      -0.80098178       0.00277835      -1.29057112 </v>
   <v>      -0.38975162      -0.03805680       1.41876297 </v>
   <v>      -0.86053983       0.00988317      -1.36710874 </v>
   <v>      -0.38985093       0.03304193       1.42356542 </v>
   <v>      -0.86054614      -0.01115938      -1.36879039 </v>
   <v>       0.53053968       0.00448406       1.44827548 </v>
   <v>       0.79500092       0.00068713      -1.43939161 </v>
   <v>       0.40911719      -0.58497765       1.35374748 </v>
   <v>       0.86267606      -0.78842835      -1.30801417 </v>
   <v>       0.40984685       0.58066628       1.35655171 </v>
   <v>       0.86034804       0.78731849      -1.30618641 </v>
  </varray>
  <varray name="stress" >
   <v>      12.56250301       0.02023151      -0.01448721 </v>
   <v>       0.02023109     185.26097681      -0.00025263 </v>
   <v>      -0.01448800      -0.00025247      35.59797235 </v>
  </varray>
  <energy>
   <i name="e_fr_energy">   -173.06097434 </i>
   <i name="e_wo_entrp">   -173.00171455 </i>
   <i name="e_0_energy">   -173.03134444 </i>
  </energy>
  <time name="totalsc">  160.07  160.46</time>
 </calculation>
 <calculation>
  <scstep>
   <time name="dav">    4.00    4.01</time>
   <time name="total">    4.26    4.27</time>
   <energy>
    <i name="alphaZ">    754.61352816 </i>
    <i name="ewald"> 305898.61292166 </i>
    <i name="hartreedc">-357100.99384273 </i>
    <i name="XCdc">   1913.91071410 </i>
    <i name="pawpsdc">  55605.52160903 </i>
    <i name="pawaedc"> -59469.42827206 </i>
    <i name="eentropy">     -0.08768106 </i>
    <i name="bandstr">  -2393.41371008 </i>
    <i name="atom">  54673.92782889 </i>
    <i name="e_fr_energy">   -117.33690409 </i>
    <i name="e_wo_entrp">   -117.24922303 </i>
    <i name="e_0_energy">   -117.29306356 </i>
   </energy>
  </scstep>
  <scstep>
   <time name="dav">    5.14    5.15</time>
   <time name="total">    5.41    5.42</time>
   <energy>
    <i name="e_fr_energy">   -232.64606617 </i>
    <i name="e_wo_entrp">   -232.53849165 </i>
    <i name="e_0_energy">   -232.59227891 </i>
   </energy>
  </scstep>
  <scstep>
   <time name="dav">    4.67    4.68</time>
   <time name="total">    4.95    4.97</time>
   <energy>
    <i name="e_fr_energy">   -226.97791116 </i>
    <i name="e_wo_entrp">   -226.87505599 </i>
    <i name="e_0_energy">   -226.92648357 </i>
   </energy>
  </scstep>
  <scstep>
   <time name="dav">    4.48    4.49</time>
   <time name="total">    4.74    4.76</time>
   <energy>
    <i name="e_fr_energy">   -213.89532728 </i>
    <i name="e_wo_entrp">   -213.83541779 </i>
    <i name="e_0_energy">   -213.86537253 </i>
   </energy>
  </scstep>
  <scstep>
   <time name="dav">    4.00    4.00</time>
   <time name="total">    4.26    4.27</time>
   <energy>
    <i name="e_fr_energy">   -205.76131535 </i>
    <i name="e_wo_entrp">   -205.67212823 </i>
    <i name="e_0_energy">   -205.71672179 </i>
   </energy>
  </scstep>
  <scstep>
   <time name="dav">    4.60    4.61</time>
   <time name="total">    4.86    4.87</time>
   <energy>
    <i name="e_fr_energy">   -243.30472989 </i>
    <i name="e_wo_entrp">   -243.23656894 </i>
    <i name="e_0_energy">   -243.27064941 </i>
   </energy>
  </scstep>
  <scstep>
   <time name="dav">    4.19    4.20</time>
   <time name="total">    4.46    4.47</time>
   <energy>
    <i name="e_fr_energy">   -220.54432012 </i>
    <i name="e_wo_entrp">   -220.47314709 </i>
    <i name="e_0_energy">   -220.50873360 </i>
   </energy>
  </scstep>
  <scstep>
   <time name="dav">    4.41    4.42</time>
   <time name="total">    4.68    4.69</time>
   <energy>
    <i name="e_fr_energy">   -208.99620302 </i>
    <i name="e_wo_entrp">   -208.94147700 </i>
    <i name="e_0_energy">   -208.96884001 </i>
   </energy>
  </scstep>
  <scstep>
   <time name="dav">    4.29    4.30</time>
   <time name="total">    4.56    4.57</time>
   <energy>
    <i name="e_fr_energy">   -205.11891209 </i>
    <i name="e_wo_entrp">   -205.03143152 </i>
    <i name="e_0_energy">   -205.07517181 </i>
   </energy>
  </scstep>
  <scstep>
   <time name="dav">    4.27    4.28</time>
   <time name="total">    4.54    4.55</time>
   <energy>
    <i name="e_fr_energy">   -204.14032747 </i>
    <i name="e_wo_entrp">   -204.07762804 </i>
    <i name="e_0_energy">   -204.10897776 </i>
   </energy>
  </scstep>
  <scstep>
   <time name="dav">    4.37    4.38</time>
   <time name="total">    4.64    4.65</time>
   <energy>
    <i name="e_fr_energy">   -200.11306834 </i>
    <i name="e_wo_entrp">   -200.04012548 </i>
    <i name="e_0_energy">   -200.07659691 </i>
   </energy>
  </scstep>
  <scstep>
   <time name="dav">    4.36    4.37</time>
   <time name="total">    4.63    4.64</time>
   <energy>
    <i name="e_fr_energy">   -203.30874025 </i>
    <i name="e_wo_entrp">   -203.24764758 </i>
    <i name="e_0_energy">   -203.27819391 </i>
   </energy>
  </scstep>
  <scstep>
   <time name="dav">    4.52    4.53</time>
   <time name="total">    4.79    4.80</time>
   <energy>
    <i name="e_fr_energy">   -200.60034991 </i>
    <i name="e_wo_entrp">   -200.52924133 </i>
    <i name="e_0_energy">   -200.56479562 </i>
   </energy>
  </scstep>
  <scstep>
   <time name="dav">    4.26    4.26</time>
   <time name="total">    4.52    4.53</time>
   <energy>
    <i name="e_fr_energy">   -200.24768508 </i>
    <i name="e_wo_entrp">   -200.18323424 </i>
    <i name="e_0_energy">   -200.21545966 </i>
   </energy>
  </scstep>
  <scstep>
   <time name="dav">    4.16    4.17</time>
   <time name="total">    4.43    4.44</time>
   <energy>
    <i name="e_fr_energy">   -199.69190328 </i>
    <i name="e_wo_entrp">   -199.62363547 </i>
    <i name="e_0_energy">   -199.65776937 </i>
   </energy>
  </scstep>
  <scstep>
   <time name="dav">    3.90    3.91</time>
   <time name="total">    4.17    4.21</time>
   <energy>
    <i name="e_fr_energy">   -199.66158267 </i>
    <i name="e_wo_entrp">   -199.59116775 </i>
    <i name="e_0_energy">   -199.62637521 </i>
   </energy>
  </scstep>
  <scstep>
   <time name="dav">    4.09    4.10</time>
   <time name="total">    4.36    4.37</time>
   <energy>
    <i name="e_fr_energy">   -199.69526292 </i>
    <i name="e_wo_entrp">   -199.62767498 </i>
    <i name="e_0_energy">   -199.66146895 </i>
   </energy>
  </scstep>
  <scstep>
   <time name="dav">    4.03    4.04</time>
   <time name="total">    4.31    4.32</time>
   <energy>
    <i name="e_fr_energy">   -199.74859237 </i>
    <i name="e_wo_entrp">   -199.68106185 </i>
    <i name="e_0_energy">   -199.71482711 </i>
   </energy>
  </scstep>
  <scstep>
   <time name="dav">    3.91    3.92</time>
   <time name="total">    4.19    4.20</time>
   <energy>
    <i name="e_fr_energy">   -199.68093480 </i>
    <i name="e_wo_entrp">   -199.61065630 </i>
    <i name="e_0_energy">   -199.64579555 </i>
   </energy>
  </scstep>
  <scstep>
   <time name="dav">    4.10    4.10</time>
   <time name="total">    4.37    4.38</time>
   <energy>
    <i name="e_fr_energy">   -199.53047393 </i>
    <i name="e_wo_entrp">   -199.45366683 </i>
    <i name="e_0_energy">   -199.49207038 </i>
   </energy>
  </scstep>
  <scstep>
   <time name="dav">    4.30    4.31</time>
   <time name="total">    4.58    4.59</time>
   <energy>
    <i name="e_fr_energy">   -199.47862068 </i>
    <i name="e_wo_entrp">   -199.39446965 </i>
    <i name="e_0_energy">   -199.43654517 </i>
   </energy>
  </scstep>
  <scstep>
   <time name="dav">    4.27    4.27</time>
   <time name="total">    4.54    4.55</time>
   <energy>
    <i name="e_fr_energy">   -199.48561832 </i>
    <i name="e_wo_entrp">   -199.40272840 </i>
    <i name="e_0_energy">   -199.44417336 </i>
   </energy>
  </scstep>
  <scstep>
   <time name="dav">    3.74    3.75</time>
   <time name="total">    4.01    4.02</time>
   <energy>
    <i name="e_fr_energy">   -199.35364542 </i>
    <i name="e_wo_entrp">   -199.22416464 </i>
    <i name="e_0_energy">   -199.28890503 </i>
   </energy>
  </scstep>
  <scstep>
   <time name="dav">    3.86    3.87</time>
   <time name="total">    4.14    4.15</time>
   <energy>
    <i name="e_fr_energy">   -199.36827496 </i>
    <i name="e_wo_entrp">   -199.23968549 </i>
    <i name="e_0_energy">   -199.30398022 </i>
   </energy>
  </scstep>
  <scstep>
   <time name="dav">    3.93    3.94</time>
   <time name="total">    4.21    4.22</time>
   <energy>
    <i name="e_fr_energy">   -199.36793147 </i>
    <i name="e_wo_entrp">   -199.23865877 </i>
    <i name="e_0_energy">   -199.30329512 </i>
   </energy>
  </scstep>
  <scstep>
   <time name="dav">    3.89    3.90</time>
   <time name="total">    4.17    4.18</time>
   <energy>
    <i name="e_fr_energy">   -199.36359133 </i>
    <i name="e_wo_entrp">   -199.23139458 </i>
    <i name="e_0_energy">   -199.29749296 </i>
   </energy>
  </scstep>
  <scstep>
   <time name="dav">    3.87    3.88</time>
   <time name="total">    4.15    4.16</time>
   <energy>
    <i name="e_fr_energy">   -199.35713704 </i>
    <i name="e_wo_entrp">   -199.22031065 </i>
    <i name="e_0_energy">   -199.28872385 </i>
   </energy>
  </scstep>
  <scstep>
   <time name="dav">    3.98    3.99</time>
   <time name="total">    4.27    4.28</time>
   <energy>
    <i name="e_fr_energy">   -199.35566732 </i>
    <i name="e_wo_entrp">   -199.20719717 </i>
    <i name="e_0_energy">   -199.28143224 </i>
   </energy>
  </scstep>
  <scstep>
   <time name="dav">    3.55    3.56</time>
   <time name="total">    3.83    3.84</time>
   <energy>
    <i name="e_fr_energy">   -199.35718407 </i>
    <i name="e_wo_entrp">   -199.20737944 </i>
    <i name="e_0_energy">   -199.28228176 </i>
   </energy>
  </scstep>
  <scstep>
   <time name="dav">    4.74    4.75</time>
   <time name="total">    5.02    5.03</time>
   <energy>
    <i name="e_fr_energy">   -199.35711602 </i>
    <i name="e_wo_entrp">   -199.20935743 </i>
    <i name="e_0_energy">   -199.28323673 </i>
   </energy>
  </scstep>
  <scstep>
   <time name="dav">    3.69    3.70</time>
   <time name="total">    3.98    3.99</time>
   <energy>
    <i name="e_fr_energy">   -199.35737381 </i>
    <i name="e_wo_entrp">   -199.21258659 </i>
    <i name="e_0_energy">   -199.28498020 </i>
   </energy>
  </scstep>
  <scstep>
   <time name="dav">    4.26    4.26</time>
   <time name="total">    4.55    4.56</time>
   <energy>
    <i name="e_fr_energy">   -199.35761941 </i>
    <i name="e_wo_entrp">   -199.21380765 </i>
    <i name="e_0_energy">   -199.28571353 </i>
   </energy>
  </scstep>
  <scstep>
   <time name="dav">    3.87    3.88</time>
   <time name="total">    4.16    4.17</time>
   <energy>
    <i name="e_fr_energy">   -199.35767486 </i>
    <i name="e_wo_entrp">   -199.20818630 </i>
    <i name="e_0_energy">   -199.28293058 </i>
   </energy>
  </scstep>
  <scstep>
   <time name="dav">    4.11    4.12</time>
   <time name="total">    4.40    4.41</time>
   <energy>
    <i name="e_fr_energy">   -199.35741303 </i>
    <i name="e_wo_entrp">   -199.20987508 </i>
    <i name="e_0_energy">   -199.28364406 </i>
   </energy>
  </scstep>
  <scstep>
   <time name="dav">    3.65    3.66</time>
   <time name="total">    3.94    3.95</time>
   <energy>
    <i name="e_fr_energy">   -199.35775014 </i>
    <i name="e_wo_entrp">   -199.20900543 </i>
    <i name="e_0_energy">   -199.28337778 </i>
   </energy>
  </scstep>
  <scstep>
   <time name="dav">    3.75    3.76</time>
   <time name="total">    4.04    4.05</time>
   <energy>
    <i name="e_fr_energy">   -199.35763308 </i>
    <i name="e_wo_entrp">   -199.21074296 </i>
    <i name="e_0_energy">   -199.28418802 </i>
   </energy>
  </scstep>
  <scstep>
   <time name="dav">    4.04    4.05</time>
   <time name="total">    4.34    4.35</time>
   <energy>
    <i name="e_fr_energy">   -199.35774283 </i>
    <i name="e_wo_entrp">   -199.21166482 </i>
    <i name="e_0_energy">   -199.28470382 </i>
   </energy>
  </scstep>
  <scstep>
   <time name="dav">    3.40    3.41</time>
   <time name="total">    3.71    3.72</time>
   <energy>
    <i name="e_fr_energy">   -199.35778368 </i>
    <i name="e_wo_entrp">   -199.21051218 </i>
    <i name="e_0_energy">   -199.28414793 </i>
   </energy>
  </scstep>
  <scstep>
   <time name="dav">    3.11    3.12</time>
   <time name="total">    3.41    3.42</time>
   <energy>
    <i name="e_fr_energy">   -199.35781569 </i>
    <i name="e_wo_entrp">   -199.21046771 </i>
    <i name="e_0_energy">   -199.28414170 </i>
   </energy>
  </scstep>
  <scstep>
   <time name="dav">    2.59    2.59</time>
   <time name="total">    2.89    2.90</time>
   <energy>
    <i name="e_fr_energy">   -199.35781624 </i>
    <i name="e_wo_entrp">   -199.21105846 </i>
    <i name="e_0_energy">   -199.28443735 </i>
   </energy>
  </scstep>
  <scstep>
   <time name="dav">    2.71    2.72</time>
   <time name="total">    3.02    3.02</time>
   <energy>
    <i name="e_fr_energy">   -199.35785302 </i>
    <i name="e_wo_entrp">   -199.21149979 </i>
    <i name="e_0_energy">   -199.28467641 </i>
   </energy>
  </scstep>
  <scstep>
   <time name="dav">    2.58    2.59</time>
   <time name="total">    2.89    2.89</time>
   <energy>
    <i name="e_fr_energy">   -199.35786488 </i>
    <i name="e_wo_entrp">   -199.21112439 </i>
    <i name="e_0_energy">   -199.28449463 </i>
   </energy>
  </scstep>
  <scstep>
   <time name="dav">    2.31    2.32</time>
   <time name="total">    2.62    2.63</time>
   <energy>
    <i name="e_fr_energy">   -199.35787185 </i>
    <i name="e_wo_entrp">   -199.21118066 </i>
    <i name="e_0_energy">   -199.28452626 </i>
   </energy>
  </scstep>
  <scstep>
   <time name="dav">    2.25    2.26</time>
   <time name="total">    2.57    2.57</time>
   <energy>
    <i name="e_fr_energy">   -199.35787642 </i>
    <i name="e_wo_entrp">   -199.21114721 </i>
    <i name="e_0_energy">   -199.28451182 </i>
   </energy>
  </scstep>
  <scstep>
   <time name="dav">    2.23    2.23</time>
   <time name="total">    2.54    2.55</time>
   <energy>
    <i name="e_fr_energy">   -199.35788036 </i>
    <i name="e_wo_entrp">   -199.21135025 </i>
    <i name="e_0_energy">   -199.28461531 </i>
   </energy>
  </scstep>
  <scstep>
   <time name="dav">    2.34    2.35</time>
   <time name="total">    2.66    2.66</time>
   <energy>
    <i name="e_fr_energy">   -199.35788153 </i>
    <i name="e_wo_entrp">   -199.21132900 </i>
    <i name="e_0_energy">   -199.28460527 </i>
   </energy>
  </scstep>
  <scstep>
   <time name="dav">    2.17    2.17</time>
   <time name="total">    2.22    2.22</time>
   <energy>
    <i name="alphaZ">    754.61352816 </i>
    <i name="ewald"> 305898.61292166 </i>
    <i name="hartreedc">-357016.79051570 </i>
    <i name="XCdc">   1913.52457803 </i>
    <i name="pawpsdc">  55502.48559213 </i>
    <i name="pawaedc"> -59372.95902439 </i>
    <i name="eentropy">     -0.14656918 </i>
    <i name="bandstr">  -2552.62622094 </i>
    <i name="atom">  54673.92782889 </i>
    <i name="e_fr_energy">   -199.35788134 </i>
    <i name="e_wo_entrp">   -199.21131216 </i>
    <i name="e_0_energy">   -199.28459675 </i>
   </energy>
  </scstep>
  <structure>
   <crystal>
    <varray name="basis" >
     <v>       7.66857304       0.00000000       0.00000000 </v>
     <v>       0.00000000       7.66857304       0.00000000 </v>
     <v>       0.00000000       0.00000000      29.42250000 </v>
    </varray>
    <i name="volume">   1730.24932528 </i>
    <varray name="rec_basis" >
     <v>       0.13040236       0.00000000       0.00000000 </v>
     <v>       0.00000000       0.13040236       0.00000000 </v>
     <v>       0.00000000       0.00000000       0.03398759 </v>
    </varray>
   </crystal>
   <varray name="positions" >
    <v>       0.16666667       0.16666667       0.40785113 </v>
    <v>       0.50000000       0.16666667       0.40785113 </v>
    <v>       0.83333333       0.16666667       0.40785113 </v>
    <v>       0.16666667       0.50000000       0.40785113 </v>
    <v>       0.50000000       0.50000000       0.40785113 </v>
    <v>       0.83333333       0.50000000       0.40785113 </v>
    <v>       0.16666667       0.83333333       0.40785113 </v>
    <v>       0.50000000       0.83333333       0.40785113 </v>
    <v>       0.83333333       0.83333333       0.40785113 </v>
    <v>       0.00000000       0.00000000       0.46928371 </v>
    <v>       0.33333333       0.00000000       0.46928371 </v>
    <v>       0.66666667       0.00000000       0.46928371 </v>
    <v>       0.00000000       0.33333333       0.46928371 </v>
    <v>       0.33333333       0.33333333       0.46928371 </v>
    <v>       0.66666667       0.33333333       0.46928371 </v>
    <v>       0.00000000       0.66666667       0.46928371 </v>
    <v>       0.33333333       0.66666667       0.46928371 </v>
    <v>       0.66666667       0.66666667       0.46928371 </v>
    <v>       0.16668975       0.16644853       0.53066781 </v>
    <v>       0.49976218       0.16715820       0.53110569 </v>
    <v>       0.83354509       0.16715944       0.53110264 </v>
    <v>       0.16669624       0.50023891       0.53067053 </v>
    <v>       0.49976224       0.49953582       0.53111473 </v>
    <v>       0.83353885       0.49952798       0.53110528 </v>
    <v>       0.16669867       0.83330931       0.53102337 </v>
    <v>       0.49970715       0.83330314       0.53118593 </v>
    <v>       0.83359301       0.83330936       0.53118754 </v>
    <v>       0.00023511       0.99982089       0.59242214 </v>
    <v>       0.33301709       0.99984061       0.59241443 </v>
    <v>       0.66674479       0.99991531       0.59233460 </v>
    <v>       0.99690625       0.33327492       0.59195501 </v>
    <v>       0.33640383       0.33330322       0.59195301 </v>
    <v>       0.66669999       0.33330241       0.59216455 </v>
    <v>       0.00023507       0.66689988       0.59242265 </v>
    <v>       0.33304328       0.66685417       0.59241544 </v>
    <v>       0.66671862       0.66677891       0.59233552 </v>
    <v>       0.16666869       0.14862224       0.71627056 </v>
    <v>       0.16665403       0.91050702       0.62147073 </v>
    <v>       0.16668446       0.75618110       0.62147027 </v>
    <v>       0.16670005       0.51806596       0.71626887 </v>
    <v>       0.16308477       0.83335370       0.74042815 </v>
    <v>       0.16162773       0.83335081       0.77560504 </v>
    <v>       0.49754809       0.16642725       0.74062180 </v>
    <v>       0.49458638       0.16672884       0.77547955 </v>
    <v>       0.49754746       0.50020787       0.74062967 </v>
    <v>       0.49458634       0.49992980       0.77547679 </v>
    <v>       0.50333760       0.83336154       0.74067019 </v>
    <v>       0.50500132       0.83333766       0.77536103 </v>
    <v>       0.83590707       0.16298660       0.74051520 </v>
    <v>       0.83876039       0.16170670       0.77557644 </v>
    <v>       0.83591166       0.50365295       0.74051979 </v>
    <v>       0.83874574       0.50495299       0.77557944 </v>
   </varray>
  </structure>
  <varray name="forces" >
   <v>       0.00536304      -0.00105968      -0.07697704 </v>
   <v>      -0.00224469       0.00431499      -0.08780572 </v>
   <v>      -0.00251269      -0.00008458      -0.08822852 </v>
   <v>       0.00962799       0.00524572      -0.07635869 </v>
   <v>      -0.00225174       0.00421595      -0.08749974 </v>
   <v>      -0.00674631       0.00434384      -0.08761720 </v>
   <v>       0.00505591      -0.00515798      -0.10242151 </v>
   <v>       0.00542672      -0.00941820      -0.07625945 </v>
   <v>      -0.00989319      -0.00515258      -0.07748590 </v>
   <v>       0.00326330       0.00836661      -0.18339683 </v>
   <v>      -0.00753113       0.00882645      -0.17897158 </v>
   <v>       0.00481916      -0.03689788      -0.25241810 </v>
   <v>      -0.01329989      -0.00490930      -0.28620369 </v>
   <v>       0.01024715      -0.00379950      -0.28568582 </v>
   <v>       0.00367922      -0.00379412      -0.19030073 </v>
   <v>       0.00323226      -0.00439256      -0.17837356 </v>
   <v>      -0.00638412      -0.00597108      -0.17794381 </v>
   <v>       0.00373479       0.03971205      -0.25143798 </v>
   <v>       0.00247244       0.22317939       0.00771400 </v>
   <v>       0.00551047      -0.08049971       0.15440961 </v>
   <v>      -0.00647932      -0.07957363       0.15271863 </v>
   <v>       0.00255349      -0.22087171       0.01008484 </v>
   <v>       0.00526836       0.07895664       0.15436070 </v>
   <v>      -0.00643285       0.08030739       0.15564803 </v>
   <v>       0.00183793      -0.00214346      -0.71994903 </v>
   <v>       0.17033496      -0.00113973       0.00863256 </v>
   <v>      -0.17117903      -0.00219857       0.00586822 </v>
   <v>      -4.03506873       2.74660492      -1.92579821 </v>
   <v>       4.03150614       2.74568932      -1.92812494 </v>
   <v>       0.00484743       0.07341255      -0.01683391 </v>
   <v>       0.04252165      -0.00317284       0.12809849 </v>
   <v>      -0.05004709      -0.00784532       0.12995873 </v>
   <v>       0.00468571      -0.00393708       0.17407681 </v>
   <v>      -4.03451738      -2.74043163      -1.92983992 </v>
   <v>       4.03725851      -2.74605140      -1.93041584 </v>
   <v>       0.00239902      -0.07104569      -0.01679976 </v>
   <v>       0.00110535       0.56682493      -0.19062873 </v>
   <v>      -0.01744781       7.27136074       5.23182974 </v>
   <v>      -0.00670808      -7.26099941       5.23111956 </v>
   <v>       0.00026843      -0.57119524      -0.18744536 </v>
   <v>      -0.26639386       0.00609529     -19.30719890 </v>
   <v>      -0.73484846       0.00150523      19.41208885 </v>
   <v>      -0.13094633       0.08848066     -21.41544840 </v>
   <v>      -0.99111440       0.03293991      21.40393331 </v>
   <v>      -0.13134275      -0.09161511     -21.49483922 </v>
   <v>      -0.99266689      -0.03168904      21.48497832 </v>
   <v>       0.28245751       0.00184698     -22.59984891 </v>
   <v>       0.81047483      -0.00020987      22.58060426 </v>
   <v>       0.16341393      -0.24735794     -19.98161000 </v>
   <v>       0.92456587      -0.72124665      19.97243812 </v>
   <v>       0.16113859       0.24274750     -19.99412809 </v>
   <v>       0.91698656       0.72888443      19.98573231 </v>
  </varray>
  <varray name="stress" >
   <v>      30.97888770      -0.01438997      -0.04525537 </v>
   <v>      -0.01438974      33.85086771       0.00849985 </v>
   <v>      -0.04525589       0.00850060     133.19751473 </v>
  </varray>
  <energy>
   <i name="e_fr_energy">   -199.35788134 </i>
   <i name="e_wo_entrp">   -199.21131216 </i>
   <i name="e_0_energy">   -199.28459675 </i>
  </energy>
  <time name="totalsc">  196.75  197.25</time>
 </calculation>
 <calculation>
  <scstep>
   <time name="dav">    3.20    3.21</time>
   <time name="total">    3.46    3.47</time>
   <energy>
    <i name="alphaZ">    754.61352816 </i>
    <i name="ewald"> 305891.26283740 </i>
    <i name="hartreedc">-357017.09316185 </i>
    <i name="XCdc">   1912.29068864 </i>
    <i name="pawpsdc">  55502.49074200 </i>
    <i name="pawaedc"> -59372.96434870 </i>
    <i name="eentropy">     -0.09766770 </i>
    <i name="bandstr">  -2538.71908302 </i>
    <i name="atom">  54673.92782889 </i>
    <i name="e_fr_energy">   -194.28863618 </i>
    <i name="e_wo_entrp">   -194.19096849 </i>
    <i name="e_0_energy">   -194.23980233 </i>
   </energy>
  </scstep>
  <scstep>
   <time name="dav">    5.29    5.31</time>
   <time name="total">    5.56    5.57</time>
   <energy>
    <i name="e_fr_energy">   -205.67048821 </i>
    <i name="e_wo_entrp">   -205.61705390 </i>
    <i name="e_0_energy">   -205.64377106 </i>
   </energy>
  </scstep>
  <scstep>
   <time name="dav">    4.46    4.47</time>
   <time name="total">    4.73    4.74</time>
   <energy>
    <i name="e_fr_energy">   -203.60015913 </i>
    <i name="e_wo_entrp">   -203.54224662 </i>
    <i name="e_0_energy">   -203.57120288 </i>
   </energy>
  </scstep>
  <scstep>
   <time name="dav">    4.72    4.73</time>
   <time name="total">    4.98    4.99</time>
   <energy>
    <i name="e_fr_energy">   -196.87713180 </i>
    <i name="e_wo_entrp">   -196.75160152 </i>
    <i name="e_0_energy">   -196.81436666 </i>
   </energy>
  </scstep>
  <scstep>
   <time name="dav">    5.04    5.05</time>
   <time name="total">    5.30    5.32</time>
   <energy>
    <i name="e_fr_energy">   -196.59740726 </i>
    <i name="e_wo_entrp">   -196.48761603 </i>
    <i name="e_0_energy">   -196.54251165 </i>
   </energy>
  </scstep>
  <scstep>
   <time name="dav">    4.55    4.56</time>
   <time name="total">    4.82    4.83</time>
   <energy>
    <i name="e_fr_energy">   -196.58037032 </i>
    <i name="e_wo_entrp">   -196.43244964 </i>
    <i name="e_0_energy">   -196.50640998 </i>
   </energy>
  </scstep>
  <scstep>
   <time name="dav">    4.00    4.01</time>
   <time name="total">    4.26    4.27</time>
   <energy>
    <i name="e_fr_energy">   -196.59165711 </i>
    <i name="e_wo_entrp">   -196.45639705 </i>
    <i name="e_0_energy">   -196.52402708 </i>
   </energy>
  </scstep>
  <scstep>
   <time name="dav">    3.84    3.84</time>
   <time name="total">    4.10    4.11</time>
   <energy>
    <i name="e_fr_energy">   -196.78506296 </i>
    <i name="e_wo_entrp">   -196.65173342 </i>
    <i name="e_0_energy">   -196.71839819 </i>
   </energy>
  </scstep>
  <scstep>
   <time name="dav">    5.05    5.06</time>
   <time name="total">    5.32    5.33</time>
   <energy>
    <i name="e_fr_energy">   -196.41644886 </i>
    <i name="e_wo_entrp">   -196.29769313 </i>
    <i name="e_0_energy">   -196.35707100 </i>
   </energy>
  </scstep>
  <scstep>
   <time name="dav">    5.15    5.16</time>
   <time name="total">    5.41    5.43</time>
   <energy>
    <i name="e_fr_energy">   -196.43542103 </i>
    <i name="e_wo_entrp">   -196.29003809 </i>
    <i name="e_0_energy">   -196.36272956 </i>
   </energy>
  </scstep>
  <scstep>
   <time name="dav">    4.46    4.47</time>
   <time name="total">    4.73    4.74</time>
   <energy>
    <i name="e_fr_energy">   -196.42544025 </i>
    <i name="e_wo_entrp">   -196.28245711 </i>
    <i name="e_0_energy">   -196.35394868 </i>
   </energy>
  </scstep>
  <scstep>
   <time name="dav">    3.68    3.69</time>
   <time name="total">    3.95    3.96</time>
   <energy>
    <i name="e_fr_energy">   -196.42077170 </i>
    <i name="e_wo_entrp">   -196.28301640 </i>
    <i name="e_0_energy">   -196.35189405 </i>
   </energy>
  </scstep>
  <scstep>
   <time name="dav">    3.96    3.96</time>
   <time name="total">    4.23    4.24</time>
   <energy>
    <i name="e_fr_energy">   -196.42273764 </i>
    <i name="e_wo_entrp">   -196.28617087 </i>
    <i name="e_0_energy">   -196.35445425 </i>
   </energy>
  </scstep>
  <scstep>
   <time name="dav">    3.97    3.98</time>
   <time name="total">    4.24    4.25</time>
   <energy>
    <i name="e_fr_energy">   -196.42300419 </i>
    <i name="e_wo_entrp">   -196.28686326 </i>
    <i name="e_0_energy">   -196.35493373 </i>
   </energy>
  </scstep>
  <scstep>
   <time name="dav">    3.50    3.51</time>
   <time name="total">    3.77    3.78</time>
   <energy>
    <i name="e_fr_energy">   -196.42307844 </i>
    <i name="e_wo_entrp">   -196.28713579 </i>
    <i name="e_0_energy">   -196.35510712 </i>
   </energy>
  </scstep>
  <scstep>
   <time name="dav">    3.60    3.61</time>
   <time name="total">    3.87    3.88</time>
   <energy>
    <i name="e_fr_energy">   -196.42303600 </i>
    <i name="e_wo_entrp">   -196.28663595 </i>
    <i name="e_0_energy">   -196.35483597 </i>
   </energy>
  </scstep>
  <scstep>
[...]
   </energy>
  </scstep>
  <structure>
   <crystal>
    <varray name="basis" >
     <v>       7.66857304       0.00000000       0.00000000 </v>
     <v>       0.00000000       7.66857304       0.00000000 </v>
     <v>       0.00000000       0.00000000      29.42250000 </v>
    </varray>
    <i name="volume">   1730.24932528 </i>
    <varray name="rec_basis" >
     <v>       0.13040236       0.00000000       0.00000000 </v>
     <v>       0.00000000       0.13040236       0.00000000 </v>
     <v>       0.00000000       0.00000000       0.03398759 </v>
    </varray>
   </crystal>
   <varray name="positions" >
    <v>       0.16666667       0.16666667       0.40785113 </v>
    <v>       0.50000000       0.16666667       0.40785113 </v>
    <v>       0.83333333       0.16666667       0.40785113 </v>
    <v>       0.16666667       0.50000000       0.40785113 </v>
    <v>       0.50000000       0.50000000       0.40785113 </v>
    <v>       0.83333333       0.50000000       0.40785113 </v>
    <v>       0.16666667       0.83333333       0.40785113 </v>
    <v>       0.50000000       0.83333333       0.40785113 </v>
    <v>       0.83333333       0.83333333       0.40785113 </v>
    <v>       0.00000000       0.00000000       0.46928371 </v>
    <v>       0.33333333       0.00000000       0.46928371 </v>
    <v>       0.66666667       0.00000000       0.46928371 </v>
    <v>       0.00000000       0.33333333       0.46928371 </v>
    <v>       0.33333333       0.33333333       0.46928371 </v>
    <v>       0.66666667       0.33333333       0.46928371 </v>
    <v>       0.00000000       0.66666667       0.46928371 </v>
    <v>       0.33333333       0.66666667       0.46928371 </v>
    <v>       0.66666667       0.66666667       0.46928371 </v>
    <v>       0.16126399       0.16919324       0.53310144 </v>
    <v>       0.48597597       0.16397353       0.53472726 </v>
    <v>       0.82234959       0.17221545       0.53225149 </v>
    <v>       0.18087355       0.50696411       0.53396452 </v>
    <v>       0.50459356       0.49691196       0.53498903 </v>
    <v>       0.84070621       0.50968830       0.53111601 </v>
    <v>       0.16341693       0.83694052       0.52926434 </v>
    <v>       0.49454517       0.82776351       0.53380901 </v>
    <v>       0.83676912       0.84316941       0.53373927 </v>
    <v>       0.95851151       0.03436523       0.60078851 </v>
    <v>       0.31412755       0.98927892       0.59762186 </v>
    <v>       0.64248940       0.99737155       0.59428025 </v>
    <v>       0.00376284       0.34839850       0.59430418 </v>
    <v>       0.32897226       0.31578128       0.60357593 </v>
    <v>       0.65777318       0.33192467       0.59576767 </v>
    <v>       0.02183611       0.67875185       0.59687777 </v>
    <v>       0.37077563       0.64314084       0.60347598 </v>
    <v>       0.68938732       0.66755918       0.59297527 </v>
    <v>       0.23321572       0.30254113       0.66571718 </v>
    <v>       0.09620130       0.89863926       0.63943735 </v>
    <v>       0.22505008       0.78402759       0.63962726 </v>
    <v>       0.05902351       0.31367384       0.66115763 </v>
    <v>       0.14052375       0.83456086       0.81123882 </v>
    <v>       0.12122828       0.83756389       0.84994365 </v>
    <v>       0.40580268       0.14418720       0.75762263 </v>
    <v>       0.38058690       0.13094194       0.79595842 </v>
    <v>       0.38484179       0.51953389       0.75669809 </v>
    <v>       0.39041856       0.53574182       0.79558348 </v>
    <v>       0.63362637       0.83414546       0.73059411 </v>
    <v>       0.63350038       0.83116214       0.76964134 </v>
    <v>       0.88645279       0.13588335       0.74741578 </v>
    <v>       0.90969797       0.13592213       0.78597989 </v>
    <v>       0.88595167       0.53404051       0.74743640 </v>
    <v>       0.91824798       0.52904559       0.78551780 </v>
   </varray>
  </structure>
  <varray name="forces" >
   <v>      -0.00956777       0.01183179      -0.02703330 </v>
   <v>      -0.00159495       0.01395016      -0.06217436 </v>
   <v>       0.00467131       0.00200932      -0.07195957 </v>
   <v>       0.01570496      -0.00772123      -0.02337658 </v>
   <v>      -0.00671334       0.00277085      -0.08690272 </v>
   <v>      -0.00519709      -0.00845586      -0.05762638 </v>
   <v>       0.00196971      -0.00233984      -0.07993216 </v>
   <v>       0.01626244      -0.01713401      -0.05168099 </v>
   <v>      -0.01995213       0.00926356      -0.05932058 </v>
   <v>      -0.12998955       0.17079520      -0.12686379 </v>
   <v>       0.05706065       0.08021974      -0.04111944 </v>
   <v>      -0.11975484      -0.00907458       0.01321183 </v>
   <v>       0.04652171       0.03215639      -0.02617772 </v>
   <v>       0.04188071       0.02562730       0.00012233 </v>
   <v>      -0.12564407       0.03795737       0.07295009 </v>
   <v>       0.03260164       0.02651866      -0.13056968 </v>
   <v>       0.11859565      -0.07943558      -0.06546044 </v>
   <v>      -0.02641717       0.06487459       0.00197764 </v>
   <v>      -0.13957447       0.06020145       0.15284576 </v>
   <v>      -0.04310436       0.04281712       0.00048370 </v>
   <v>       0.17764448       0.07926421       0.22048288 </v>
   <v>      -0.19485870      -0.23805662       0.11046886 </v>
   <v>      -0.05642983      -0.05972866      -0.07425129 </v>
   <v>       0.21123710      -0.23958251       0.39900718 </v>
   <v>       0.14008990      -0.00477213       0.28629481 </v>
   <v>       0.04345120      -0.03784730      -0.04560719 </v>
   <v>      -0.11373472      -0.02089076      -0.02263447 </v>
   <v>      -0.14432520      -0.06087697      -0.05113540 </v>
   <v>       0.02414513      -0.02880818      -0.08424922 </v>
   <v>      -0.00393082       0.03340527       0.01014656 </v>
   <v>      -0.50882703       0.30509817       0.38131306 </v>
   <v>       0.32122050       0.02711022      -0.17019485 </v>
   <v>       0.27752720       0.03656576      -0.06014821 </v>
   <v>      -0.17962940       0.09144467      -0.00791131 </v>
   <v>       0.15083792      -0.12173800      -0.08492361 </v>
   <v>       0.02039830      -0.05809974       0.11516400 </v>
   <v>       0.80883036      -0.03780751      -0.29052348 </v>
   <v>       1.28313538      -1.33680661       0.11033639 </v>
   <v>      -1.19571429       0.95362324       0.14674680 </v>
   <v>      -0.77112262       0.26116348      -0.49609552 </v>
   <v>      -0.05460063       0.00120169       0.27640748 </v>
   <v>       0.01099916      -0.00832135      -0.02826256 </v>
   <v>       0.00312534      -0.05193583       0.09116966 </v>
   <v>      -0.01220267       0.05811672      -0.02544968 </v>
   <v>       0.00575137       0.13194411       0.38801041 </v>
   <v>      -0.04096571      -0.09518464      -0.31642049 </v>
   <v>      -0.00519910      -0.01173086      -0.05521818 </v>
   <v>       0.04133538      -0.00979770      -0.08434957 </v>
   <v>      -0.02804403      -0.04796676       0.03761344 </v>
   <v>       0.04516089       0.01342289       0.00206066 </v>
   <v>       0.02590102       0.03142367      -0.00933829 </v>
   <v>       0.01103510      -0.01066433       0.00009749 </v>
  </varray>
  <varray name="stress" >
   <v>       3.83026550       0.29149048       0.58450221 </v>
   <v>       0.29149004       5.48819280      -0.66947324 </v>
   <v>       0.58450196      -0.66947352      -1.66363413 </v>
  </varray>
  <energy>
   <i name="e_fr_energy">   -218.67331687 </i>
   <i name="e_wo_entrp">   -218.61062555 </i>
   <i name="e_0_energy">   -218.64197121 </i>
  </energy>
  <time name="totalsc">   46.75   46.89</time>
 </calculation>
 <calculation>
  <scstep>
   <time name="dav">    3.11    3.12</time>
   <time name="total">    3.37    3.38</time>
   <energy>
    <i name="alphaZ">    754.61352816 </i>
    <i name="ewald"> 295292.97135704 </i>
    <i name="hartreedc">-346632.83381037 </i>
    <i name="XCdc">   1904.98824932 </i>
    <i name="pawpsdc">  53413.23680320 </i>
    <i name="pawaedc"> -57275.51170028 </i>
    <i name="eentropy">     -0.05848891 </i>
    <i name="bandstr">  -2350.02812793 </i>
    <i name="atom">  54673.92782889 </i>
    <i name="e_fr_energy">   -218.69436088 </i>
    <i name="e_wo_entrp">   -218.63587197 </i>
    <i name="e_0_energy">   -218.66511643 </i>
   </energy>
  </scstep>
  <scstep>
   <time name="dav">    4.82    4.83</time>
   <time name="total">    5.08    5.09</time>
   <energy>
    <i name="e_fr_energy">   -218.78645434 </i>
    <i name="e_wo_entrp">   -218.70891969 </i>
    <i name="e_0_energy">   -218.74768702 </i>
   </energy>
  </scstep>
  <scstep>
   <time name="dav">    4.51    4.52</time>
   <time name="total">    4.78    4.79</time>
   <energy>
    <i name="e_fr_energy">   -218.72380045 </i>
    <i name="e_wo_entrp">   -218.66584922 </i>
    <i name="e_0_energy">   -218.69482484 </i>
   </energy>
  </scstep>
  <scstep>
   <time name="dav">    3.79    3.80</time>
   <time name="total">    4.05    4.06</time>
   <energy>
    <i name="e_fr_energy">   -218.72658989 </i>
    <i name="e_wo_entrp">   -218.66568572 </i>
    <i name="e_0_energy">   -218.69613781 </i>
   </energy>
  </scstep>
  <scstep>
   <time name="dav">    3.85    3.86</time>
   <time name="total">    4.12    4.13</time>
   <energy>
    <i name="e_fr_energy">   -218.72595155 </i>
    <i name="e_wo_entrp">   -218.66489659 </i>
    <i name="e_0_energy">   -218.69542407 </i>
   </energy>
  </scstep>
  <scstep>
   <time name="dav">    4.28    4.29</time>
   <time name="total">    4.55    4.56</time>
   <energy>
    <i name="e_fr_energy">   -218.72593846 </i>
    <i name="e_wo_entrp">   -218.66390430 </i>
    <i name="e_0_energy">   -218.69492138 </i>
   </energy>
  </scstep>
  <scstep>
   <time name="dav">    3.80    3.81</time>
   <time name="total">    4.07    4.07</time>
   <energy>
    <i name="e_fr_energy">   -218.72594082 </i>
    <i name="e_wo_entrp">   -218.66390801 </i>
    <i name="e_0_energy">   -218.69492441 </i>
   </energy>
  </scstep>
  <scstep>
   <time name="dav">    4.01    4.01</time>
   <time name="total">    4.27    4.28</time>
   <energy>
    <i name="e_fr_energy">   -218.72593917 </i>
    <i name="e_wo_entrp">   -218.66400933 </i>
    <i name="e_0_energy">   -218.69497425 </i>
   </energy>
  </scstep>
  <scstep>
   <time name="dav">    3.90    3.91</time>
   <time name="total">    4.16    4.17</time>
   <energy>
    <i name="e_fr_energy">   -218.72592382 </i>
    <i name="e_wo_entrp">   -218.66422913 </i>
    <i name="e_0_energy">   -218.69507647 </i>
   </energy>
  </scstep>
  <scstep>
   <time name="dav">    3.82    3.83</time>
   <time name="total">    4.09    4.10</time>
   <energy>
    <i name="e_fr_energy">   -218.72592887 </i>
    <i name="e_wo_entrp">   -218.66429250 </i>
    <i name="e_0_energy">   -218.69511069 </i>
   </energy>
  </scstep>
  <scstep>
   <time name="dav">    3.91    3.92</time>
   <time name="total">    4.18    4.19</time>
   <energy>
    <i name="e_fr_energy">   -218.72593163 </i>
    <i name="e_wo_entrp">   -218.66436235 </i>
    <i name="e_0_energy">   -218.69514699 </i>
   </energy>
  </scstep>
  <scstep>
   <time name="dav">    3.58    3.59</time>
   <time name="total">    3.85    3.86</time>
   <energy>
    <i name="e_fr_energy">   -218.72593211 </i>
    <i name="e_wo_entrp">   -218.66436574 </i>
    <i name="e_0_energy">   -218.69514893 </i>
   </energy>
  </scstep>
  <scstep>
   <time name="dav">    2.39    2.40</time>
   <time name="total">    2.45    2.45</time>
   <energy>
    <i name="alphaZ">    754.61352816 </i>
    <i name="ewald"> 295292.97135704 </i>
    <i name="hartreedc">-346636.34688642 </i>
    <i name="XCdc">   1905.12044591 </i>
    <i name="pawpsdc">  53469.15744711 </i>
    <i name="pawaedc"> -57331.39794654 </i>
    <i name="eentropy">     -0.06159889 </i>
    <i name="bandstr">  -2346.71010732 </i>
    <i name="atom">  54673.92782889 </i>
    <i name="e_fr_energy">   -218.72593205 </i>
    <i name="e_wo_entrp">   -218.66433316 </i>
    <i name="e_0_energy">   -218.69513261 </i>
   </energy>
  </scstep>
  <structure>
   <crystal>
    <varray name="basis" >
     <v>       7.66857304       0.00000000       0.00000000 </v>
     <v>       0.00000000       7.66857304       0.00000000 </v>
     <v>       0.00000000       0.00000000      29.42250000 </v>
    </varray>
    <i name="volume">   1730.24932528 </i>
    <varray name="rec_basis" >
     <v>       0.13040236       0.00000000       0.00000000 </v>
     <v>       0.00000000       0.13040236       0.00000000 </v>
     <v>       0.00000000       0.00000000       0.03398759 </v>
    </varray>
   </crystal>
   <varray name="positions" >
    <v>       0.16666667       0.16666667       0.40785113 </v>
    <v>       0.50000000       0.16666667       0.40785113 </v>
    <v>       0.83333333       0.16666667       0.40785113 </v>
    <v>       0.16666667       0.50000000       0.40785113 </v>
    <v>       0.50000000       0.50000000       0.40785113 </v>
    <v>       0.83333333       0.50000000       0.40785113 </v>
    <v>       0.16666667       0.83333333       0.40785113 </v>
    <v>       0.50000000       0.83333333       0.40785113 </v>
    <v>       0.83333333       0.83333333       0.40785113 </v>
    <v>       0.00000000       0.00000000       0.46928371 </v>
    <v>       0.33333333       0.00000000       0.46928371 </v>
    <v>       0.66666667       0.00000000       0.46928371 </v>
    <v>       0.00000000       0.33333333       0.46928371 </v>
    <v>       0.33333333       0.33333333       0.46928371 </v>
    <v>       0.66666667       0.33333333       0.46928371 </v>
    <v>       0.00000000       0.66666667       0.46928371 </v>
    <v>       0.33333333       0.66666667       0.46928371 </v>
    <v>       0.66666667       0.66666667       0.46928371 </v>
    <v>       0.16107064       0.16931274       0.53313387 </v>
    <v>       0.48577335       0.16408058       0.53474254 </v>
    <v>       0.82250412       0.17245099       0.53231715 </v>
    <v>       0.18059231       0.50664248       0.53400653 </v>
    <v>       0.50448212       0.49678710       0.53496029 </v>
    <v>       0.84105936       0.50927014       0.53127069 </v>
    <v>       0.16358228       0.83694173       0.52946789 </v>
    <v>       0.49454612       0.82772788       0.53379030 </v>
    <v>       0.83658756       0.84317397       0.53375988 </v>
    <v>       0.95827885       0.03407671       0.60082613 </v>
    <v>       0.31393816       0.98921835       0.59756469 </v>
    <v>       0.64236869       0.99740250       0.59427773 </v>
    <v>       0.00318859       0.34903134       0.59448397 </v>
    <v>       0.32918332       0.31576039       0.60376773 </v>
    <v>       0.65810530       0.33196406       0.59572179 </v>
    <v>       0.02175192       0.67867889       0.59687121 </v>
    <v>       0.37080592       0.64319089       0.60352032 </v>
    <v>       0.68950478       0.66742155       0.59300611 </v>
    <v>       0.23420571       0.30351291       0.66494059 </v>
    <v>       0.09787294       0.89644614       0.63938840 </v>
    <v>       0.22333228       0.78571713       0.63959779 </v>
    <v>       0.05854761       0.31263890       0.66104051 </v>
    <v>       0.14062844       0.83456391       0.81160242 </v>
    <v>       0.12096994       0.83758442       0.85026826 </v>
    <v>       0.40579181       0.14423905       0.75767014 </v>
    <v>       0.38081842       0.13086276       0.79599888 </v>
    <v>       0.38451322       0.51955541       0.75676611 </v>
    <v>       0.39077437       0.53570552       0.79554680 </v>
    <v>       0.63315525       0.83409135       0.73053841 </v>
    <v>       0.63319379       0.83110325       0.76945080 </v>
    <v>       0.88668809       0.13553424       0.74742168 </v>
    <v>       0.90974384       0.13582583       0.78599228 </v>
    <v>       0.88629630       0.53432397       0.74744430 </v>
    <v>       0.91832529       0.52913190       0.78551776 </v>
   </varray>
  </structure>
  <varray name="forces" >
   <v>      -0.00856589       0.01156527      -0.02569617 </v>
   <v>      -0.00236357       0.01276417      -0.06036014 </v>
   <v>       0.00506131       0.00068457      -0.07096741 </v>
   <v>       0.01581529      -0.00810200      -0.02121412 </v>
   <v>      -0.00676274       0.00373476      -0.08690003 </v>
   <v>      -0.00484407      -0.00783827      -0.05574191 </v>
   <v>       0.00141008      -0.00278440      -0.07470373 </v>
   <v>       0.01694479      -0.01745305      -0.05158278 </v>
   <v>      -0.02054813       0.00879696      -0.05873185 </v>
   <v>      -0.12648831       0.16296834      -0.11512554 </v>
   <v>       0.05341545       0.07707884      -0.03585717 </v>
   <v>      -0.11929951      -0.00371157       0.01737794 </v>
   <v>       0.04374136       0.03205118      -0.02714538 </v>
   <v>       0.03998718       0.02542281       0.00185623 </v>
   <v>      -0.12056922       0.03835646       0.07729980 </v>
   <v>       0.03202091       0.02921392      -0.11728438 </v>
   <v>       0.11114813      -0.07959625      -0.05718041 </v>
   <v>      -0.01830875       0.05534494       0.01069511 </v>
   <v>      -0.13823066       0.05619290       0.15608744 </v>
   <v>      -0.04147574       0.03858056       0.00694534 </v>
   <v>       0.16962690       0.05834006       0.21095320 </v>
   <v>      -0.18097365      -0.22486108       0.10319250 </v>
   <v>      -0.05605502      -0.05337806      -0.06276427 </v>
   <v>       0.19811658      -0.21200133       0.36835754 </v>
   <v>       0.12854859      -0.00784738       0.24280789 </v>
   <v>       0.04580138      -0.03956541      -0.03871178 </v>
   <v>      -0.10389765      -0.02183542      -0.02603189 </v>
   <v>      -0.06164908      -0.11249266       0.03560636 </v>
   <v>       0.07335958       0.01818228      -0.11713907 </v>
   <v>      -0.00742889       0.03156825       0.00645108 </v>
   <v>      -0.49212177       0.26413979       0.37321755 </v>
   <v>       0.34630262       0.03502357      -0.31063059 </v>
   <v>       0.26781261       0.03545609      -0.05743757 </v>
   <v>      -0.21848518       0.05477064      -0.04447672 </v>
   <v>       0.08657217      -0.05637162      -0.02743133 </v>
   <v>       0.01130623      -0.05365846       0.11054402 </v>
   <v>       0.60853379      -0.03858551      -0.15549904 </v>
   <v>      -0.43893307       0.21970073       0.05823979 </v>
   <v>       0.51535134      -0.57863408       0.13801274 </v>
   <v>      -0.59888191       0.24702121      -0.49159702 </v>
   <v>      -0.04401379      -0.00087093       0.18777663 </v>
   <v>      -0.00280765      -0.00579048       0.06990279 </v>
   <v>       0.00788292      -0.04715554       0.04249745 </v>
   <v>      -0.01912689       0.05395344       0.02045276 </v>
   <v>      -0.00840915       0.09532717       0.07199408 </v>
   <v>      -0.02981663      -0.06085785      -0.00201825 </v>
   <v>      -0.00522512      -0.00292379      -0.49885879 </v>
   <v>       0.03987607      -0.01788242       0.35318054 </v>
   <v>      -0.03022268      -0.04596468       0.02979236 </v>
   <v>       0.04756180       0.01325190       0.00840551 </v>
   <v>       0.01139837       0.03229576      -0.08010180 </v>
   <v>       0.02790926      -0.01162435       0.06954246 </v>
  </varray>
  <varray name="stress" >
   <v>       5.06689506      -0.80954159       0.50113225 </v>
   <v>      -0.80954132       6.55730108      -0.64816088 </v>
   <v>       0.50113268      -0.64816075      -0.54726261 </v>
  </varray>
  <energy>
   <i name="e_fr_energy">   -218.72593205 </i>
   <i name="e_wo_entrp">   -218.66433316 </i>
   <i name="e_0_energy">   -218.69513261 </i>
  </energy>
  <time name="totalsc">   57.69   57.84</time>
 </calculation>
 <calculation>
  <scstep>
   <time name="dav">    3.13    3.13</time>
   <t