Cu(100) coverage-dependent binding (RPBE
            1
     7.668573    0.000000    0.000000
     0.000000    7.668573    0.000000
     0.000000    0.000000   29.422500
   Cu   O    C    O    C    O    C    O    C    O    C    O    C    O    C    O 
    36     1     2     1     1     1     1     1     1     1     1     1     1     1     1     1
Direct configuration=     1
   0.16666667  0.16666667  0.40785113
   0.50000000  0.16666667  0.40785113
   0.83333333  0.16666667  0.40785113
   0.16666667  0.50000000  0.40785113
   0.50000000  0.50000000  0.40785113
   0.83333333  0.50000000  0.40785113
   0.16666667  0.83333333  0.40785113
   0.50000000  0.83333333  0.40785113
   0.83333333  0.83333333  0.40785113
   0.00000000  0.00000000  0.46928371
   0.33333333  0.00000000  0.46928371
   0.66666667  0.00000000  0.46928371
   0.00000000  0.33333333  0.46928371
   0.33333333  0.33333333  0.46928371
   0.66666667  0.33333333  0.46928371
   0.00000000  0.66666667  0.46928371
   0.33333333  0.66666667  0.46928371
   0.66666667  0.66666667  0.46928371
   0.16666667  0.16666667  0.53071629
   0.50000000  0.16666667  0.53071629
   0.83333333  0.16666667  0.53071629
   0.16666667  0.50000000  0.53071629
   0.50000000  0.50000000  0.53071629
   0.83333333  0.50000000  0.53071629
   0.16666667  0.83333333  0.53071629
   0.50000000  0.83333333  0.53071629
   0.83333333  0.83333333  0.53071629
   0.00000000  0.00000000  0.59214887
   0.33333333  0.00000000  0.59214887
   0.66666667  0.00000000  0.59214887
   0.00000000  0.33333333  0.59214887
   0.33333333  0.33333333  0.59214887
   0.66666667  0.33333333  0.59214887
   0.00000000  0.66666667  0.59214887
   0.33333333  0.66666667  0.59214887
   0.66666667  0.66666667  0.59214887
   0.16666667  0.23553157  0.68731413
   0.16666667  0.28443245  0.64992778
   0.16666667  0.38223422  0.64992778
   0.16666667  0.43113510  0.68731413
   0.16666667  0.83333333  0.73829552
   0.16666667  0.83333333  0.77772113
   0.50000000  0.16666667  0.73829552
   0.50000000  0.16666667  0.77772113
   0.50000000  0.50000000  0.73829552
   0.50000000  0.50000000  0.77772113
   0.50000000  0.83333333  0.73829552
   0.50000000  0.83333333  0.77772113
   0.83333333  0.16666667  0.73829552
   0.83333333  0.16666667  0.77772113
   0.83333333  0.50000000  0.73829552
   0.83333333  0.50000000  0.77772113
Direct configuration=     2
   0.16666667  0.16666667  0.40785113
   0.50000000  0.16666667  0.40785113
   0.83333333  0.16666667  0.40785113
   0.16666667  0.50000000  0.40785113
   0.50000000  0.50000000  0.40785113
   0.83333333  0.50000000  0.40785113
   0.16666667  0.83333333  0.40785113
   0.50000000  0.83333333  0.40785113
   0.83333333  0.83333333  0.40785113
   0.00000000  0.00000000  0.46928371
   0.33333333  0.00000000  0.46928371
   0.66666667  0.00000000  0.46928371
   0.00000000  0.33333333  0.46928371
   0.33333333  0.33333333  0.46928371
   0.66666667  0.33333333  0.46928371
   0.00000000  0.66666667  0.46928371
   0.33333333  0.66666667  0.46928371
   0.66666667  0.66666667  0.46928371
   0.16668975  0.16644853  0.53066781
   0.49976218  0.16715820  0.53110569
   0.83354509  0.16715944  0.53110264
   0.16669624  0.50023891  0.53067053
   0.49976224  0.49953582  0.53111473
   0.83353885  0.49952798  0.53110528
   0.16669867  0.83330931  0.53102337
   0.49970715  0.83330314  0.53118593
   0.83359301  0.83330936  0.53118754
   0.00023511  0.99982089  0.59242214
   0.33301709  0.99984061  0.59241443
   0.66674479  0.99991531  0.59233460
   0.99690625  0.33327492  0.59195501
   0.33640383  0.33330322  0.59195301
   0.66669999  0.33330241  0.59216455
   0.00023507  0.66689988  0.59242265
   0.33304328  0.66685417  0.59241544
   0.66671862  0.66677891  0.59233552
   0.16666869  0.14862224  0.71627056
   0.16665403  0.91050702  0.62147073
   0.16668446  0.75618110  0.62147027
   0.16670005  0.51806596  0.71626887
   0.16308477  0.83335370  0.74042815
   0.16162773  0.83335081  0.77560504
   0.49754809  0.16642725  0.74062180
   0.49458638  0.16672884  0.77547955
   0.49754746  0.50020787  0.74062967
   0.49458634  0.49992980  0.77547679
   0.50333760  0.83336154  0.74067019
   0.50500132  0.83333766  0.77536103
   0.83590707  0.16298660  0.74051520
   0.83876039  0.16170670  0.77557644
   0.83591166  0.50365295  0.74051979
   0.83874574  0.50495299  0.77557944
Direct configuration=     3
   0.16666667  0.16666667  0.40785113
   0.50000000  0.16666667  0.40785113
   0.83333333  0.16666667  0.40785113
   0.16666667  0.50000000  0.40785113
   0.50000000  0.50000000  0.40785113
   0.83333333  0.50000000  0.40785113
   0.16666667  0.83333333  0.40785113
   0.50000000  0.83333333  0.40785113
   0.83333333  0.83333333  0.40785113
   0.00000000  0.00000000  0.46928371
   0.33333333  0.00000000  0.46928371
   0.66666667  0.00000000  0.46928371
   0.00000000  0.33333333  0.46928371
   0.33333333  0.33333333  0.46928371
   0.66666667  0.33333333  0.46928371
   0.00000000  0.66666667  0.46928371
   0.33333333  0.66666667  0.46928371
   0.66666667  0.66666667  0.46928371
   0.16668890  0.16645657  0.53066959
   0.49977095  0.16714008  0.53109133
   0.83353728  0.16714127  0.53108840
   0.16669515  0.50023010  0.53067221
   0.49977101  0.49955293  0.53110003
   0.83353127  0.49954539  0.53109094
   0.16669749  0.83331019  0.53101205
   0.49971794  0.83330425  0.53116862
   0.83358344  0.83331024  0.53117017
   0.00022644  0.99982749  0.59241206
   0.33302875  0.99984649  0.59240463
   0.66674191  0.99991843  0.59232775
   0.99702033  0.33327708  0.59196216
   0.33629060  0.33330433  0.59196023
   0.66669876  0.33330355  0.59216397
   0.00022640  0.66689128  0.59241255
   0.33305398  0.66684726  0.59240561
   0.66671670  0.66677477  0.59232864
   0.16666862  0.15182707  0.71520277
   0.16665450  0.96117135  0.62252010
   0.16668380  0.70551597  0.62251966
   0.16669882  0.51486033  0.71520114
   0.16321685  0.83335295  0.74034950
   0.16181354  0.83335017  0.77568308
   0.49763851  0.16643608  0.74053602
   0.49478601  0.16672655  0.77556221
   0.49763790  0.50020020  0.74054360
   0.49478597  0.49993239  0.77555955
   0.50321453  0.83336050  0.74058262
   0.50481689  0.83333750  0.77544806
   0.83581216  0.16312230  0.74043334
   0.83856026  0.16188960  0.77565553
   0.83581658  0.50351824  0.74043777
   0.83854616  0.50477034  0.77565842
Direct configuration=     4
   0.16666667  0.16666667  0.40785113
   0.50000000  0.16666667  0.40785113
   0.83333333  0.16666667  0.40785113
   0.16666667  0.50000000  0.40785113
   0.50000000  0.50000000  0.40785113
   0.83333333  0.50000000  0.40785113
   0.16666667  0.83333333  0.40785113
   0.50000000  0.83333333  0.40785113
   0.83333333  0.83333333  0.40785113
   0.00000000  0.00000000  0.46928371
   0.33333333  0.00000000  0.46928371
   0.66666667  0.00000000  0.46928371
   0.00000000  0.33333333  0.46928371
   0.33333333  0.33333333  0.46928371
   0.66666667  0.33333333  0.46928371
   0.00000000  0.66666667  0.46928371
   0.33333333  0.66666667  0.46928371
   0.66666667  0.66666667  0.46928371
   0.16668913  0.16645438  0.53066911
   0.49976856  0.16714501  0.53109524
   0.83353941  0.16714621  0.53109227
   0.16669544  0.50023249  0.53067175
   0.49976863  0.49954828  0.53110403
   0.83353333  0.49954065  0.53109484
   0.16669781  0.83330995  0.53101513
   0.49971501  0.83330395  0.53117332
   0.83358604  0.83331000  0.53117489
   0.00022880  0.99982570  0.59241480
   0.33302558  0.99984489  0.59240730
   0.66674269  0.99991759  0.59232961
   0.99698931  0.33327649  0.59196022
   0.33632139  0.33330403  0.59195827
   0.66669910  0.33330324  0.59216412
   0.00022876  0.66689362  0.59241530
   0.33305107  0.66684914  0.59240828
   0.66671723  0.66677590  0.59233051
   0.16666864  0.15095565  0.71549311
   0.16665437  0.94739524  0.62223476
   0.16668398  0.71929230  0.62223432
   0.16669916  0.51573197  0.71549147
   0.16318093  0.83335315  0.74037089
   0.16176302  0.83335034  0.77566186
   0.49761392  0.16643368  0.74055934
   0.49473173  0.16672717  0.77553973
   0.49761331  0.50020228  0.74056700
   0.49473169  0.49993168  0.77553705
   0.50324799  0.83336079  0.74060643
   0.50486704  0.83333754  0.77542440
   0.83583797  0.16308540  0.74045560
   0.83861468  0.16183987  0.77563403
   0.83584244  0.50355487  0.74046008
   0.83860043  0.50482000  0.77563694
Direct configuration=     5
   0.16666667  0.16666667  0.40785113
   0.50000000  0.16666667  0.40785113
   0.83333333  0.16666667  0.40785113
   0.16666667  0.50000000  0.40785113
   0.50000000  0.50000000  0.40785113
   0.83333333  0.50000000  0.40785113
   0.16666667  0.83333333  0.40785113
   0.50000000  0.83333333  0.40785113
   0.83333333  0.83333333  0.40785113
   0.00000000  0.00000000  0.46928371
   0.33333333  0.00000000  0.46928371
   0.66666667  0.00000000  0.46928371
   0.00000000  0.33333333  0.46928371
   0.33333333  0.33333333  0.46928371
   0.66666667  0.33333333  0.46928371
   0.00000000  0.66666667  0.46928371
   0.33333333  0.66666667  0.46928371
   0.66666667  0.66666667  0.46928371
   0.16668944  0.16645146  0.53066846
   0.49976537  0.16715160  0.53110046
   0.83354225  0.16715283  0.53109746
   0.16669584  0.50023570  0.53067114
   0.49976543  0.49954205  0.53110938
   0.83353609  0.49953432  0.53110006
   0.16669824  0.83330963  0.53101925
   0.49971108  0.83330354  0.53117963
   0.83358953  0.83330968  0.53118122
   0.00023195  0.99982329  0.59241847
   0.33302133  0.99984275  0.59241086
   0.66674374  0.99991645  0.59233210
   0.99694778  0.33327571  0.59195761
   0.33636261  0.33330362  0.59195564
   0.66669954  0.33330282  0.59216433
   0.00023192  0.66689675  0.59241897
   0.33304718  0.66685166  0.59241186
   0.66671792  0.66677740  0.59233302
   0.16666866  0.14978894  0.71588184
   0.16665420  0.92895113  0.62185275
   0.16668422  0.73773670  0.62185230
   0.16669960  0.51689896  0.71588017
   0.16313285  0.83335343  0.74039952
   0.16169537  0.83335058  0.77563345
   0.49758101  0.16643047  0.74059057
   0.49465906  0.16672801  0.77550964
   0.49758039  0.50020507  0.74059834
   0.49465902  0.49993074  0.77550692
   0.50329280  0.83336116  0.74063831
   0.50493418  0.83333760  0.77539271
   0.83587252  0.16303600  0.74048540
   0.83868754  0.16177328  0.77560524
   0.83587705  0.50360391  0.74048994
   0.83867309  0.50488650  0.77560819
Direct configuration=     6
   0.16666667  0.16666667  0.40785113
   0.50000000  0.16666667  0.40785113
   0.83333333  0.16666667  0.40785113
   0.16666667  0.50000000  0.40785113
   0.50000000  0.50000000  0.40785113
   0.83333333  0.50000000  0.40785113
   0.16666667  0.83333333  0.40785113
   0.50000000  0.83333333  0.40785113
   0.83333333  0.83333333  0.40785113
   0.00000000  0.00000000  0.46928371
   0.33333333  0.00000000  0.46928371
   0.66666667  0.00000000  0.46928371
   0.00000000  0.33333333  0.46928371
   0.33333333  0.33333333  0.46928371
   0.66666667  0.33333333  0.46928371
   0.00000000  0.66666667  0.46928371
   0.33333333  0.66666667  0.46928371
   0.66666667  0.66666667  0.46928371
   0.16668959  0.16644999  0.53066813
   0.49976377  0.16715490  0.53110308
   0.83354367  0.16715614  0.53110005
   0.16669604  0.50023730  0.53067083
   0.49976384  0.49953893  0.53111205
   0.83353747  0.49953115  0.53110267
   0.16669846  0.83330947  0.53102131
   0.49970911  0.83330334  0.53118278
   0.83359127  0.83330952  0.53118438
   0.00023353  0.99982209  0.59242030
   0.33301921  0.99984168  0.59241264
   0.66674427  0.99991588  0.59233335
   0.99692701  0.33327532  0.59195631
   0.33638322  0.33330342  0.59195432
   0.66669977  0.33330262  0.59216444
   0.00023350  0.66689832  0.59242081
   0.33304523  0.66685292  0.59241365
   0.66671827  0.66677816  0.59233427
   0.16666868  0.14920559  0.71607620
   0.16665412  0.91972908  0.62166174
   0.16668434  0.74695890  0.62166129
   0.16669983  0.51748246  0.71607452
   0.16310881  0.83335356  0.74041383
   0.16166155  0.83335069  0.77561925
   0.49756455  0.16642886  0.74060618
   0.49462272  0.16672842  0.77549460
   0.49756393  0.50020647  0.74061401
   0.49462268  0.49993027  0.77549186
   0.50331520  0.83336135  0.74065425
   0.50496775  0.83333763  0.77537687
   0.83588980  0.16301130  0.74050030
   0.83872396  0.16173999  0.77559084
   0.83589436  0.50362843  0.74050486
   0.83870942  0.50491974  0.77559382
Direct configuration=     7
   0.16666667  0.16666667  0.40785113
   0.50000000  0.16666667  0.40785113
   0.83333333  0.16666667  0.40785113
   0.16666667  0.50000000  0.40785113
   0.50000000  0.50000000  0.40785113
   0.83333333  0.50000000  0.40785113
   0.16666667  0.83333333  0.40785113
   0.50000000  0.83333333  0.40785113
   0.83333333  0.83333333  0.40785113
   0.00000000  0.00000000  0.46928371
   0.33333333  0.00000000  0.46928371
   0.66666667  0.00000000  0.46928371
   0.00000000  0.33333333  0.46928371
   0.33333333  0.33333333  0.46928371
   0.66666667  0.33333333  0.46928371
   0.00000000  0.66666667  0.46928371
   0.33333333  0.66666667  0.46928371
   0.66666667  0.66666667  0.46928371
   0.16670538  0.16794975  0.53063992
   0.49982607  0.16674789  0.53134544
   0.83347294  0.16675523  0.53133946
   0.16671265  0.49875496  0.53064661
   0.49982456  0.49993955  0.53135481
   0.83346675  0.49993965  0.53134701
   0.16670996  0.83329594  0.52995808
   0.50085712  0.83329563  0.53119602
   0.83243566  0.83329555  0.53119301
   0.97206568  0.01650247  0.58882660
   0.36116427  0.01652071  0.58881308
   0.66677740  0.00043813  0.59233830
   0.99691348  0.33325318  0.59215535
   0.33634596  0.33325359  0.59215645
   0.66673022  0.33327721  0.59245201
   0.97207095  0.65026255  0.58882090
   0.36122901  0.65017480  0.58881032
   0.66673468  0.66627417  0.59233933
   0.16667857  0.14880524  0.71705358
   0.16660268  0.83616367  0.62995057
   0.16662752  0.83054205  0.62995382
   0.16669269  0.51786043  0.71705274
   0.16124734  0.83339337  0.70922885
   0.15682687  0.83336763  0.80696380
   0.49660487  0.16698248  0.70601775
   0.48817856  0.16692622  0.81006827
   0.49660019  0.49963425  0.70589831
   0.48816595  0.49973545  0.81019619
   0.50526758  0.83337578  0.70415798
   0.51026677  0.83333784  0.81184251
   0.83705122  0.16127592  0.70822461
   0.84475322  0.15698860  0.80785634
   0.83703654  0.50533481  0.70820736
   0.84469694  0.50971813  0.80788054
Direct configuration=     8
   0.16666667  0.16666667  0.40785113
   0.50000000  0.16666667  0.40785113
   0.83333333  0.16666667  0.40785113
   0.16666667  0.50000000  0.40785113
   0.50000000  0.50000000  0.40785113
   0.83333333  0.50000000  0.40785113
   0.16666667  0.83333333  0.40785113
   0.50000000  0.83333333  0.40785113
   0.83333333  0.83333333  0.40785113
   0.00000000  0.00000000  0.46928371
   0.33333333  0.00000000  0.46928371
   0.66666667  0.00000000  0.46928371
   0.00000000  0.33333333  0.46928371
   0.33333333  0.33333333  0.46928371
   0.66666667  0.33333333  0.46928371
   0.00000000  0.66666667  0.46928371
   0.33333333  0.66666667  0.46928371
   0.66666667  0.66666667  0.46928371
   0.16668962  0.16645243  0.53066809
   0.49976387  0.16715424  0.53110347
   0.83354356  0.16715548  0.53110044
   0.16669607  0.50023489  0.53067079
   0.49976394  0.49953958  0.53111245
   0.83353735  0.49953181  0.53110307
   0.16669847  0.83330945  0.53101959
   0.49971098  0.83330333  0.53118280
   0.83358939  0.83330950  0.53118439
   0.00018776  0.99984920  0.59241446
   0.33306495  0.99986878  0.59240679
   0.66674432  0.99991673  0.59233336
   0.99692699  0.33327528  0.59195664
   0.33638316  0.33330334  0.59195465
   0.66669982  0.33330257  0.59216491
   0.00018773  0.66687129  0.59241496
   0.33309103  0.66682581  0.59240779
   0.66671830  0.66677734  0.59233428
   0.16666869  0.14920494  0.71607779
   0.16665403  0.91959328  0.62167521
   0.16668425  0.74709472  0.62167476
   0.16669982  0.51748307  0.71607611
   0.16310578  0.83335363  0.74036315
   0.16165369  0.83335072  0.77567018
   0.49756299  0.16642976  0.74054998
   0.49461225  0.16672875  0.77555078
   0.49756236  0.50020554  0.74055759
   0.49461219  0.49992995  0.77554825
   0.50331837  0.83336138  0.74059494
   0.50497636  0.83333763  0.77543613
   0.83589168  0.16300848  0.74044785
   0.83873376  0.16173227  0.77564327
   0.83589621  0.50363120  0.74045238
   0.83871915  0.50492754  0.77564628
Direct configuration=     9
   0.16666667  0.16666667  0.40785113
   0.50000000  0.16666667  0.40785113
   0.83333333  0.16666667  0.40785113
   0.16666667  0.50000000  0.40785113
   0.50000000  0.50000000  0.40785113
   0.83333333  0.50000000  0.40785113
   0.16666667  0.83333333  0.40785113
   0.50000000  0.83333333  0.40785113
   0.83333333  0.83333333  0.40785113
   0.00000000  0.00000000  0.46928371
   0.33333333  0.00000000  0.46928371
   0.66666667  0.00000000  0.46928371
   0.00000000  0.33333333  0.46928371
   0.33333333  0.33333333  0.46928371
   0.66666667  0.33333333  0.46928371
   0.00000000  0.66666667  0.46928371
   0.33333333  0.66666667  0.46928371
   0.66666667  0.66666667  0.46928371
   0.16668964  0.16645477  0.53066804
   0.49976397  0.16715361  0.53110385
   0.83354345  0.16715486  0.53110081
   0.16669609  0.50023258  0.53067076
   0.49976403  0.49954021  0.53111282
   0.83353724  0.49953245  0.53110345
   0.16669849  0.83330943  0.53101792
   0.49971277  0.83330332  0.53118282
   0.83358759  0.83330948  0.53118441
   0.00014377  0.99987525  0.59240885
   0.33310890  0.99989483  0.59240117
   0.66674437  0.99991754  0.59233337
   0.99692697  0.33327524  0.59195695
   0.33638310  0.33330326  0.59195497
   0.66669986  0.33330253  0.59216536
   0.00014375  0.66684531  0.59240934
   0.33313504  0.66679977  0.59240216
   0.66671832  0.66677655  0.59233428
   0.16666871  0.14920431  0.71607931
   0.16665395  0.91946278  0.62168815
   0.16668416  0.74722525  0.62168771
   0.16669981  0.51748366  0.71607763
   0.16310288  0.83335369  0.74031445
   0.16164614  0.83335075  0.77571913
   0.49756149  0.16643062  0.74049596
   0.49460218  0.16672905  0.77560477
   0.49756086  0.50020465  0.74050338
   0.49460210  0.49992965  0.77560245
   0.50332142  0.83336140  0.74053795
   0.50498463  0.83333763  0.77549308
   0.83589350  0.16300577  0.74039745
   0.83874318  0.16172485  0.77569366
   0.83589800  0.50363386  0.74040194
   0.83872850  0.50493503  0.77569670
Direct configuration=    10
   0.16666667  0.16666667  0.40785113
   0.50000000  0.16666667  0.40785113
   0.83333333  0.16666667  0.40785113
   0.16666667  0.50000000  0.40785113
   0.50000000  0.50000000  0.40785113
   0.83333333  0.50000000  0.40785113
   0.16666667  0.83333333  0.40785113
   0.50000000  0.83333333  0.40785113
   0.83333333  0.83333333  0.40785113
   0.00000000  0.00000000  0.46928371
   0.33333333  0.00000000  0.46928371
   0.66666667  0.00000000  0.46928371
   0.00000000  0.33333333  0.46928371
   0.33333333  0.33333333  0.46928371
   0.66666667  0.33333333  0.46928371
   0.00000000  0.66666667  0.46928371
   0.33333333  0.66666667  0.46928371
   0.66666667  0.66666667  0.46928371
   0.16669029  0.16651617  0.53066689
   0.49976652  0.16713694  0.53111377
   0.83354055  0.16713845  0.53111061
   0.16669677  0.50017190  0.53066976
   0.49976652  0.49955661  0.53112276
   0.83353435  0.49954917  0.53111345
   0.16669896  0.83330887  0.53097440
   0.49975977  0.83330300  0.53118337
   0.83354028  0.83330890  0.53118476
   0.99899065  0.00055810  0.59226173
   0.33426108  0.00057763  0.59225382
   0.66674573  0.99993892  0.59233357
   0.99692642  0.33327434  0.59196510
   0.33638157  0.33330122  0.59196324
   0.66670111  0.33330149  0.59217713
   0.99899085  0.66616428  0.59226197
   0.33428881  0.66611701  0.59225465
   0.66671900  0.66675592  0.59233449
   0.16666911  0.14918792  0.71611932
   0.16665185  0.91604183  0.62202747
   0.16668183  0.75064692  0.62202719
   0.16669951  0.51749914  0.71611768
   0.16302667  0.83335532  0.73903782
   0.16144822  0.83335144  0.77700230
   0.49752220  0.16645329  0.73908000
   0.49433838  0.16673715  0.77702013
   0.49752140  0.50018122  0.73908221
   0.49433778  0.49992167  0.77702315
   0.50340135  0.83336199  0.73904389
   0.50520156  0.83333764  0.77698588
   0.83594104  0.16293473  0.73907616
   0.83899000  0.16153034  0.77701452
   0.83594475  0.50370372  0.73907977
   0.83897361  0.50513146  0.77701844
Direct configuration=    11
   0.16666667  0.16666667  0.40785113
   0.50000000  0.16666667  0.40785113
   0.83333333  0.16666667  0.40785113
   0.16666667  0.50000000  0.40785113
   0.50000000  0.50000000  0.40785113
   0.83333333  0.50000000  0.40785113
   0.16666667  0.83333333  0.40785113
   0.50000000  0.83333333  0.40785113
   0.83333333  0.83333333  0.40785113
   0.00000000  0.00000000  0.46928371
   0.33333333  0.00000000  0.46928371
   0.66666667  0.00000000  0.46928371
   0.00000000  0.33333333  0.46928371
   0.33333333  0.33333333  0.46928371
   0.66666667  0.33333333  0.46928371
   0.00000000  0.66666667  0.46928371
   0.33333333  0.66666667  0.46928371
   0.66666667  0.66666667  0.46928371
   0.16669783  0.16723296  0.53065341
   0.49979630  0.16694242  0.53122961
   0.83350674  0.16694684  0.53122504
   0.16670471  0.49946343  0.53065818
   0.49979554  0.49974808  0.53123879
   0.83350055  0.49974441  0.53123023
   0.16670446  0.83330241  0.53046624
   0.50030844  0.83329931  0.53118969
   0.83298797  0.83330223  0.53118889
   0.98552817  0.00853028  0.59054417
   0.34771268  0.00854917  0.59053345
   0.66676157  0.00018853  0.59233593
   0.99691995  0.33326376  0.59206022
   0.33636377  0.33327740  0.59205985
   0.66671566  0.33328935  0.59231457
   0.98553090  0.65821341  0.59054144
   0.34775891  0.65814590  0.59053249
   0.66672684  0.66651504  0.59233691
   0.16667384  0.14899658  0.71658645
   0.16662727  0.87610275  0.62598902
   0.16665468  0.79059449  0.62599051
   0.16669610  0.51767978  0.71658521
   0.16213700  0.83337435  0.72413334
   0.15913755  0.83335953  0.79198305
   0.49706354  0.16671788  0.72254887
   0.49125847  0.16683168  0.79354420
   0.49706080  0.49990774  0.72249026
   0.49125186  0.49982856  0.79360967
   0.50433446  0.83336889  0.72160093
   0.50773417  0.83333774  0.79441420
   0.83649613  0.16210533  0.72365039
   0.84187161  0.15925947  0.79243543
   0.83649065  0.50451927  0.72364356
   0.84183528  0.50742480  0.79244949
Direct configuration=    12
   0.16666667  0.16666667  0.40785113
   0.50000000  0.16666667  0.40785113
   0.83333333  0.16666667  0.40785113
   0.16666667  0.50000000  0.40785113
   0.50000000  0.50000000  0.40785113
   0.83333333  0.50000000  0.40785113
   0.16666667  0.83333333  0.40785113
   0.50000000  0.83333333  0.40785113
   0.83333333  0.83333333  0.40785113
   0.00000000  0.00000000  0.46928371
   0.33333333  0.00000000  0.46928371
   0.66666667  0.00000000  0.46928371
   0.00000000  0.33333333  0.46928371
   0.33333333  0.33333333  0.46928371
   0.66666667  0.33333333  0.46928371
   0.00000000  0.66666667  0.46928371
   0.33333333  0.66666667  0.46928371
   0.66666667  0.66666667  0.46928371
   0.16669106  0.16658956  0.53066551
   0.49976957  0.16711703  0.53112563
   0.83353709  0.16711883  0.53112233
   0.16669759  0.50009935  0.53066858
   0.49976949  0.49957622  0.53113464
   0.83353089  0.49956916  0.53112541
   0.16669953  0.83330821  0.53092237
   0.49981595  0.83330262  0.53118401
   0.83348373  0.83330822  0.53118518
   0.99761220  0.00137439  0.59208587
   0.33563843  0.00139385  0.59207766
   0.66674735  0.99996448  0.59233381
   0.99692575  0.33327326  0.59197484
   0.33637975  0.33329878  0.59197313
   0.66670260  0.33330025  0.59219120
   0.99761265  0.66535017  0.59208580
   0.33566805  0.66530083  0.59207832
   0.66671980  0.66673125  0.59233474
   0.16666960  0.14916833  0.71616715
   0.16664933  0.91195238  0.62243311
   0.16667905  0.75473725  0.62243300
   0.16669916  0.51751763  0.71616555
   0.16293558  0.83335727  0.73751172
   0.16121163  0.83335227  0.77853621
   0.49747524  0.16648038  0.73738734
   0.49402302  0.16674683  0.77871206
   0.49747424  0.50015322  0.73738332
   0.49402181  0.49991214  0.77872149
   0.50349689  0.83336270  0.73725786
   0.50546088  0.83333765  0.77877041
   0.83599788  0.16284980  0.73749668
   0.83928505  0.16129782  0.77859351
   0.83600065  0.50378722  0.73749922
   0.83926662  0.50536628  0.77859846
Direct configuration=    13
   0.16666667  0.16666667  0.40785113
   0.50000000  0.16666667  0.40785113
   0.83333333  0.16666667  0.40785113
   0.16666667  0.50000000  0.40785113
   0.50000000  0.50000000  0.40785113
   0.83333333  0.50000000  0.40785113
   0.16666667  0.83333333  0.40785113
   0.50000000  0.83333333  0.40785113
   0.83333333  0.83333333  0.40785113
   0.00000000  0.00000000  0.46928371
   0.33333333  0.00000000  0.46928371
   0.66666667  0.00000000  0.46928371
   0.00000000  0.33333333  0.46928371
   0.33333333  0.33333333  0.46928371
   0.66666667  0.33333333  0.46928371
   0.00000000  0.66666667  0.46928371
   0.33333333  0.66666667  0.46928371
   0.66666667  0.66666667  0.46928371
   0.16669063  0.16654852  0.53066628
   0.49976787  0.16712816  0.53111900
   0.83353902  0.16712980  0.53111578
   0.16669713  0.50013991  0.53066924
   0.49976783  0.49956525  0.53112800
   0.83353282  0.49955799  0.53111872
   0.16669921  0.83330858  0.53095146
   0.49978454  0.83330283  0.53118365
   0.83351535  0.83330860  0.53118495
   0.99838292  0.00091798  0.59218420
   0.33486833  0.00093748  0.59217615
   0.66674644  0.99995019  0.59233367
   0.99692612  0.33327386  0.59196939
   0.33638077  0.33330015  0.59196760
   0.66670177  0.33330095  0.59218333
   0.99838323  0.66580536  0.59218430
   0.33489689  0.66575717  0.59217691
   0.66671935  0.66674504  0.59233460
   0.16666933  0.14917929  0.71614041
   0.16665074  0.91423887  0.62220631
   0.16668061  0.75245027  0.62220610
   0.16669936  0.51750729  0.71613879
   0.16298651  0.83335618  0.73836499
   0.16134391  0.83335181  0.77767857
   0.49750150  0.16646523  0.73833374
   0.49419934  0.16674142  0.77776607
   0.49750061  0.50016888  0.73833320
   0.49419848  0.49991747  0.77777192
   0.50344347  0.83336230  0.73825646
   0.50531589  0.83333764  0.77777265
   0.83596610  0.16289729  0.73837980
   0.83912008  0.16142783  0.77771067
   0.83596940  0.50374054  0.73838293
   0.83910279  0.50523499  0.77771504
Direct configuration=    14
   0.16666667  0.16666667  0.40785113
   0.50000000  0.16666667  0.40785113
   0.83333333  0.16666667  0.40785113
   0.16666667  0.50000000  0.40785113
   0.50000000  0.50000000  0.40785113
   0.83333333  0.50000000  0.40785113
   0.16666667  0.83333333  0.40785113
   0.50000000  0.83333333  0.40785113
   0.83333333  0.83333333  0.40785113
   0.00000000  0.00000000  0.46928371
   0.33333333  0.00000000  0.46928371
   0.66666667  0.00000000  0.46928371
   0.00000000  0.33333333  0.46928371
   0.33333333  0.33333333  0.46928371
   0.66666667  0.33333333  0.46928371
   0.00000000  0.66666667  0.46928371
   0.33333333  0.66666667  0.46928371
   0.66666667  0.66666667  0.46928371
   0.16669058  0.16654355  0.53066637
   0.49976766  0.16712951  0.53111820
   0.83353926  0.16713113  0.53111498
   0.16669708  0.50014483  0.53066932
   0.49976763  0.49956393  0.53112720
   0.83353305  0.49955663  0.53111791
   0.16669917  0.83330863  0.53095498
   0.49978073  0.83330286  0.53118361
   0.83351918  0.83330865  0.53118492
   0.99847632  0.00086267  0.59219611
   0.33477500  0.00088218  0.59218809
   0.66674634  0.99994846  0.59233366
   0.99692617  0.33327393  0.59196873
   0.33638089  0.33330031  0.59196693
   0.66670167  0.33330103  0.59218238
   0.99847662  0.66586052  0.59219624
   0.33480343  0.66581248  0.59218886
   0.66671929  0.66674672  0.59233458
   0.16666929  0.14918061  0.71613717
   0.16665091  0.91451597  0.62217882
   0.16668080  0.75217311  0.62217860
   0.16669938  0.51750604  0.71613554
   0.16299268  0.83335605  0.73846840
   0.16135994  0.83335175  0.77757463
   0.49750468  0.16646340  0.73844843
   0.49422071  0.16674076  0.77765142
   0.49750381  0.50017077  0.73844832
   0.49421989  0.49991811  0.77765684
   0.50343700  0.83336225  0.73837748
   0.50529832  0.83333764  0.77765173
   0.83596225  0.16290304  0.73848683
   0.83910009  0.16144358  0.77760368
   0.83596561  0.50373488  0.73849003
   0.83908294  0.50521908  0.77760798
Direct configuration=    15
   0.16666667  0.16666667  0.40785113
   0.50000000  0.16666667  0.40785113
   0.83333333  0.16666667  0.40785113
   0.16666667  0.50000000  0.40785113
   0.50000000  0.50000000  0.40785113
   0.83333333  0.50000000  0.40785113
   0.16666667  0.83333333  0.40785113
   0.50000000  0.83333333  0.40785113
   0.83333333  0.83333333  0.40785113
   0.00000000  0.00000000  0.46928371
   0.33333333  0.00000000  0.46928371
   0.66666667  0.00000000  0.46928371
   0.00000000  0.33333333  0.46928371
   0.33333333  0.33333333  0.46928371
   0.66666667  0.33333333  0.46928371
   0.00000000  0.66666667  0.46928371
   0.33333333  0.66666667  0.46928371
   0.66666667  0.66666667  0.46928371
   0.16670565  0.16769817  0.53067039
   0.49987019  0.16681403  0.53129221
   0.83343659  0.16682030  0.53128675
   0.16671244  0.49899695  0.53067677
   0.49986842  0.49986980  0.53130081
   0.83343179  0.49986911  0.53129332
   0.16671282  0.83329507  0.53013171
   0.50071920  0.83329642  0.53116794
   0.83258339  0.83329656  0.53116554
   0.97993783  0.01301892  0.58990375
   0.35321957  0.01303107  0.58989564
   0.66677603  0.00032892  0.59232922
   0.99713161  0.33325442  0.59214465
   0.33614234  0.33325653  0.59214462
   0.66672851  0.33327919  0.59242369
   0.97996888  0.65378194  0.58990520
   0.35325381  0.65372931  0.58989826
   0.66673677  0.66637736  0.59233027
   0.16670285  0.15165041  0.71583988
   0.16657102  0.92228661  0.62863907
   0.16665072  0.74434002  0.62863806
   0.16671369  0.51501300  0.71583952
   0.16091903  0.83337137  0.73802717