   16   16  200    1
  0.4920998E+02  0.5444722E-09  0.5444722E-09  0.3066840E-08  0.5000000E-15
   1.0000000000000000E-004
  CAR 
 Cu-Ag alloy CO adsorption (RPBE, matches
    176     10    105
 
  0.1262379E-14  0.1262379E-14  0.1262379E-14  0.6250000E-01
      1         -8.625775   1.000000
      2         -7.625260   1.000000
      3         -7.186046   1.000000
      4         -7.024077   1.000000
      5         -6.981336   1.000000
      6         -6.871795   1.000000
      7         -6.797859   1.000000
      8         -6.785264   1.000000
      9         -6.662936   1.000000
     10         -6.532009   1.000000
     11         -6.519700   1.000000
     12         -6.510052   1.000000
     13         -6.360779   1.000000
     14         -6.239535   1.000000
     15         -6.099867   1.000000
     16         -6.053336   1.000000
     17         -6.045491   1.000000
     18         -5.779491   1.000000
     19         -5.736978   1.000000
     20         -5.718180   1.000000
     21         -5.594630   1.000000
     22         -5.466992   1.000000
     23         -5.363492   1.000000
     24         -5.171934   1.000000
     25         -5.163780   1.000000
     26         -5.140053   1.000000
     27         -5.108504   1.000000
     28         -5.014044   1.000000
     29         -4.992716   1.000000
     30         -4.867840   1.000000
     31         -4.748326   1.000000
     32         -4.689331   1.000000
     33         -4.656862   1.000000
     34         -4.623643   1.000000
     35         -4.439311   1.000000
     36         -4.402134   1.000000
     37         -4.312461   1.000000
     38         -4.304788   1.000000
     39         -4.270980   1.000000
     40         -4.193615   1.000000
     41         -4.061126   1.000000
     42         -3.925055   1.000000
     43         -3.860498   1.000000
     44         -3.702228   1.000000
     45         -3.621208   1.000000
     46         -3.586358   1.000000
     47         -3.568538   1.000000
     48         -3.542724   1.000000
     49         -3.535812   1.000000
     50         -3.395730   1.000000
     51         -3.352453   1.000000
     52         -3.299115   1.000000
     53         -3.121138   1.000000
     54         -3.060441   1.000000
     55         -3.005524   1.000000
     56         -2.960399   1.000000
     57         -2.899065   1.000000
     58         -2.857955   1.000000
     59         -2.799553   1.000000
     60         -2.767320   1.000000
     61         -2.766137   1.000000
     62         -2.751385   1.000000
     63         -2.693345   1.000000
     64         -2.650669   1.000000
     65         -2.635776   1.000000
     66         -2.609745   1.000000
     67         -2.593938   1.000000
     68         -2.554897   1.000000
     69         -2.515810   1.000000
     70         -2.506551   1.000000
     71         -2.467749   1.000000
     72         -2.454823   1.000000
     73         -2.435322   1.000000
     74         -2.428732   1.000000
     75         -2.398393   1.000000
     76         -2.365090   1.000000
     77         -2.349824   1.000000
     78         -2.298226   1.000000
     79         -2.294715   1.000000
     80         -2.293421   1.000000
     81         -2.265365   1.000000
     82         -2.241305   1.000000
     83         -2.238786   1.000000
     84         -1.812723   1.000000
     85         -0.788910   0.891720
     86         -0.661785   0.287024
     87         -0.652804   0.245378
     88         -0.544778   0.013317
     89          0.126892   0.000000
     90          0.257704   0.000000
     91          0.263738   0.000000
     92          0.637167   0.000000
     93          0.828638   0.000000
     94          0.879318   0.000000
     95          0.913875   0.000000
     96          0.954098   0.000000
     97          1.263696   0.000000
     98          3.069205   0.000000
     99          3.326019   0.000000
    100          3.422530   0.000000
    101          3.535531   0.000000
    102          3.633626   0.000000
    103          3.891966   0.000000
    104          3.929154   0.000000
    105          4.099230   0.000000
 
  0.2500000E+00  0.1251314E-14  0.1262379E-14  0.1250000E+00
      1         -8.183282   1.000000
      2         -7.266704   1.000000
      3         -7.087232   1.000000
      4         -6.898183   1.000000
      5         -6.826041   1.000000
      6         -6.815792   1.000000
      7         -6.745872   1.000000
      8         -6.685580   1.000000
      9         -6.494657   1.000000
     10         -6.431073   1.000000
     11         -6.428228   1.000000
     12         -6.420703   1.000000
     13         -6.247011   1.000000
     14         -6.196807   1.000000
     15         -6.082074   1.000000
     16         -6.000943   1.000000
     17         -5.846130   1.000000
     18         -5.690121   1.000000
     19         -5.656172   1.000000
     20         -5.637367   1.000000
     21         -5.546687   1.000000
     22         -5.349523   1.000000
     23         -5.315109   1.000000
     24         -5.258700   1.000000
     25         -5.092019   1.000000
     26         -5.084652   1.000000
     27         -5.080830   1.000000
     28         -4.951493   1.000000
     29         -4.932447   1.000000
     30         -4.781329   1.000000
     31         -4.781050   1.000000
     32         -4.707498   1.000000
     33         -4.627215   1.000000
     34         -4.541165   1.000000
     35         -4.502197   1.000000
     36         -4.479899   1.000000
     37         -4.374685   1.000000
     38         -4.357078   1.000000
     39         -4.308527   1.000000
     40         -4.247439   1.000000
     41         -4.078019   1.000000
     42         -4.056191   1.000000
     43         -3.919563   1.000000
     44         -3.876021   1.000000
     45         -3.832835   1.000000
     46         -3.662842   1.000000
     47         -3.637093   1.000000
     48         -3.615378   1.000000
     49         -3.529253   1.000000
     50         -3.481013   1.000000
     51         -3.451513   1.000000
     52         -3.414072   1.000000
     53         -3.258394   1.000000
     54         -3.231978   1.000000
     55         -3.211948   1.000000
     56         -3.144294   1.000000
     57         -3.140865   1.000000
     58         -3.034882   1.000000
     59         -3.014667   1.000000
     60         -2.994396   1.000000
     61         -2.961994   1.000000
     62         -2.915712   1.000000
     63         -2.829883   1.000000
     64         -2.814823   1.000000
     65         -2.808586   1.000000
     66         -2.777105   1.000000
     67         -2.702058   1.000000
     68         -2.697200   1.000000
     69         -2.655884   1.000000
     70         -2.652164   1.000000
     71         -2.577348   1.000000
     72         -2.568174   1.000000
     73         -2.539528   1.000000
     74         -2.530338   1.000000
     75         -2.484110   1.000000
     76         -2.478793   1.000000
     77         -2.474154   1.000000
     78         -2.451258   1.000000
     79         -2.424390   1.000000
     80         -2.411017   1.000000
     81         -2.370173   1.000000
     82         -2.324648   1.000000
     83         -2.274309   1.000000
     84         -2.268174   1.000000
     85         -1.940621   1.000000
     86         -1.223012   1.000000
     87         -0.805836   0.929906
     88         -0.706961   0.530602
     89         -0.441244   0.000116
     90         -0.146700   0.000000
     91         -0.134397   0.000000
     92          0.165577   0.000000
     93          1.025001   0.000000
     94          1.185543   0.000000
     95          1.689440   0.000000
     96          2.286092   0.000000
     97          2.581628   0.000000
     98          3.465407   0.000000
     99          3.825130   0.000000
    100          3.942512   0.000000
    101          4.034032   0.000000
    102          4.183745   0.000000
    103          4.371121   0.000000
    104          4.581593   0.000000
    105          4.626540   0.000000
 
  0.2500000E+00  0.2500000E+00  0.1262379E-14  0.1250000E+00
      1         -8.171825   1.000000
      2         -7.225992   1.000000
      3         -6.874061   1.000000
      4         -6.851305   1.000000
      5         -6.803725   1.000000
      6         -6.633214   1.000000
      7         -6.613973   1.000000
      8         -6.497233   1.000000
      9         -6.431731   1.000000
     10         -6.393030   1.000000
     11         -6.356344   1.000000
     12         -6.233779   1.000000
     13         -6.208500   1.000000
     14         -6.065490   1.000000
     15         -5.990093   1.000000
     16         -5.941940   1.000000
     17         -5.870799   1.000000
     18         -5.748446   1.000000
     19         -5.681548   1.000000
     20         -5.671856   1.000000
     21         -5.603553   1.000000
     22         -5.449783   1.000000
     23         -5.407859   1.000000
     24         -5.320619   1.000000
     25         -5.274993   1.000000
     26         -5.217266   1.000000
     27         -5.133425   1.000000
     28         -5.085143   1.000000
     29         -5.001516   1.000000
     30         -4.913634   1.000000
     31         -4.866234   1.000000
     32         -4.854137   1.000000
     33         -4.781735   1.000000
     34         -4.666408   1.000000
     35         -4.664273   1.000000
     36         -4.629361   1.000000
     37         -4.517342   1.000000
     38         -4.511596   1.000000
     39         -4.432257   1.000000
     40         -4.319664   1.000000
     41         -4.218369   1.000000
     42         -4.067595   1.000000
     43         -3.949215   1.000000
     44         -3.680184   1.000000
     45         -3.674790   1.000000
     46         -3.593169   1.000000
     47         -3.573441   1.000000
     48         -3.490935   1.000000
     49         -3.467187   1.000000
     50         -3.446033   1.000000
     51         -3.401230   1.000000
     52         -3.356526   1.000000
     53         -3.324206   1.000000
     54         -3.216463   1.000000
     55         -3.195799   1.000000
     56         -3.186147   1.000000
     57         -3.035370   1.000000
     58         -3.023261   1.000000
     59         -3.014246   1.000000
     60         -2.958418   1.000000
     61         -2.936078   1.000000
     62         -2.873177   1.000000
     63         -2.856648   1.000000
     64         -2.839404   1.000000
     65         -2.783265   1.000000
     66         -2.745596   1.000000
     67         -2.718952   1.000000
     68         -2.670099   1.000000
     69         -2.653060   1.000000
     70         -2.640143   1.000000
     71         -2.592074   1.000000
     72         -2.588323   1.000000
     73         -2.538949   1.000000
     74         -2.508693   1.000000
     75         -2.506853   1.000000
     76         -2.479802   1.000000
     77         -2.447269   1.000000
     78         -2.425164   1.000000
     79         -2.415286   1.000000
     80         -2.388310   1.000000
     81         -2.386501   1.000000
     82         -2.368062   1.000000
     83         -2.348723   1.000000
     84         -2.312901   1.000000
     85         -2.011503   1.000000
     86         -1.200037   1.000000
     87         -0.765993   0.819018
     88         -0.755432   0.777050
     89         -0.482863   0.000993
     90         -0.133812   0.000000
     91         -0.112028   0.000000
     92          0.224809   0.000000
     93          1.096100   0.000000
     94          1.206219   0.000000
     95          1.729150   0.000000
     96          2.408019   0.000000
     97          2.586589   0.000000
     98          3.405350   0.000000
     99          3.813069   0.000000
    100          3.874450   0.000000
    101          3.900614   0.000000
    102          4.289025   0.000000
    103          4.318007   0.000000
    104          4.478359   0.000000
    105          4.618729   0.000000
 
  0.1262379E-14  0.2500000E+00  0.1262379E-14  0.1250000E+00
      1         -8.171824   1.000000
      2         -7.225990   1.000000
      3         -6.874058   1.000000
      4         -6.851304   1.000000
      5         -6.803728   1.000000
      6         -6.633212   1.000000
      7         -6.613972   1.000000
      8         -6.497230   1.000000
      9         -6.431738   1.000000
     10         -6.393028   1.000000
     11         -6.356342   1.000000
     12         -6.233793   1.000000
     13         -6.208494   1.000000
     14         -6.065489   1.000000
     15         -5.990072   1.000000
     16         -5.941938   1.000000
     17         -5.870804   1.000000
     18         -5.748457   1.000000
     19         -5.681551   1.000000
     20         -5.671845   1.000000
     21         -5.603554   1.000000
     22         -5.449776   1.000000
     23         -5.407875   1.000000
     24         -5.320630   1.000000
     25         -5.274990   1.000000
     26         -5.217241   1.000000
     27         -5.133419   1.000000
     28         -5.085140   1.000000
     29         -5.001528   1.000000
     30         -4.913629   1.000000
     31         -4.866227   1.000000
     32         -4.854137   1.000000
     33         -4.781749   1.000000
     34         -4.666431   1.000000
     35         -4.664262   1.000000
     36         -4.629347   1.000000
     37         -4.517314   1.000000
     38         -4.511580   1.000000
     39         -4.432310   1.000000
     40         -4.319680   1.000000
     41         -4.218372   1.000000
     42         -4.067588   1.000000
     43         -3.949223   1.000000
     44         -3.680209   1.000000
     45         -3.674791   1.000000
     46         -3.593175   1.000000
     47         -3.573428   1.000000
     48         -3.490923   1.000000
     49         -3.467187   1.000000
     50         -3.446027   1.000000
     51         -3.401233   1.000000
     52         -3.356536   1.000000
     53         -3.324189   1.000000
     54         -3.216474   1.000000
     55         -3.195776   1.000000
     56         -3.186133   1.000000
     57         -3.035392   1.000000
     58         -3.023211   1.000000
     59         -3.014248   1.000000
     60         -2.958399   1.000000
     61         -2.936061   1.000000
     62         -2.873199   1.000000
     63         -2.856614   1.000000
     64         -2.839400   1.000000
     65         -2.783277   1.000000
     66         -2.745670   1.000000
     67         -2.718957   1.000000
     68         -2.670071   1.000000
     69         -2.653076   1.000000
     70         -2.640183   1.000000
     71         -2.592059   1.000000
     72         -2.588329   1.000000
     73         -2.538951   1.000000
     74         -2.508685   1.000000
     75         -2.506842   1.000000
     76         -2.479824   1.000000
     77         -2.447242   1.000000
     78         -2.425145   1.000000
     79         -2.415295   1.000000
     80         -2.388309   1.000000
     81         -2.386479   1.000000
     82         -2.368060   1.000000
     83         -2.348748   1.000000
     84         -2.312940   1.000000
     85         -2.011507   1.000000
     86         -1.200038   1.000000
     87         -0.766006   0.819064
     88         -0.755441   0.777090
     89         -0.482864   0.000993
     90         -0.133803   0.000000
     91         -0.112031   0.000000
     92          0.224811   0.000000
     93          1.096159   0.000000
     94          1.206227   0.000000
     95          1.729109   0.000000
     96          2.408092   0.000000
     97          2.586601   0.000000
     98          3.405345   0.000000
     99          3.813068   0.000000
    100          3.874448   0.000000
    101          3.900488   0.000000
    102          4.289089   0.000000
    103          4.318007   0.000000
    104          4.478356   0.000000
    105          4.618630   0.000000
 
  0.5000000E+00  0.1247556E-14  0.1262379E-14  0.6250000E-01
      1         -7.282365   1.000000
      2         -7.115186   1.000000
      3         -6.995459   1.000000
      4         -6.809535   1.000000
      5         -6.740985   1.000000
      6         -6.623594   1.000000
      7         -6.606028   1.000000
      8         -6.589200   1.000000
      9         -6.553853   1.000000
     10         -6.329549   1.000000
     11         -6.258045   1.000000
     12         -6.150758   1.000000
     13         -6.148457   1.000000
     14         -6.010586   1.000000
     15         -5.996980   1.000000
     16         -5.886619   1.000000
     17         -5.792765   1.000000
     18         -5.643831   1.000000
     19         -5.497441   1.000000
     20         -5.477555   1.000000
     21         -5.350321   1.000000
     22         -5.253317   1.000000
     23         -5.210125   1.000000
     24         -5.190887   1.000000
     25         -5.106402   1.000000
     26         -5.061239   1.000000
     27         -4.960039   1.000000
     28         -4.940566   1.000000
     29         -4.927620   1.000000
     30         -4.847133   1.000000
     31         -4.785090   1.000000
     32         -4.744146   1.000000
     33         -4.725492   1.000000
     34         -4.700890   1.000000
     35         -4.683907   1.000000
     36         -4.608489   1.000000
     37         -4.557602   1.000000
     38         -4.434008   1.000000
     39         -4.415596   1.000000
     40         -4.297851   1.000000
     41         -4.187354   1.000000
     42         -4.167181   1.000000
     43         -4.083257   1.000000
     44         -4.072236   1.000000
     45         -3.910809   1.000000
     46         -3.893973   1.000000
     47         -3.765668   1.000000
     48         -3.685729   1.000000
     49         -3.663387   1.000000
     50         -3.625160   1.000000
     51         -3.584583   1.000000
     52         -3.516449   1.000000
     53         -3.510788   1.000000
     54         -3.496121   1.000000
     55         -3.462063   1.000000
     56         -3.394634   1.000000
     57         -3.337730   1.000000
     58         -3.248370   1.000000
     59         -3.168652   1.000000
     60         -3.139938   1.000000
     61         -3.129091   1.000000
     62         -3.102007   1.000000
     63         -3.016596   1.000000
     64         -3.005650   1.000000
     65         -2.960414   1.000000
     66         -2.949252   1.000000
     67         -2.939985   1.000000
     68         -2.918676   1.000000
     69         -2.869050   1.000000
     70         -2.828332   1.000000
     71         -2.795163   1.000000
     72         -2.734578   1.000000
     73         -2.733859   1.000000
     74         -2.689921   1.000000
     75         -2.634004   1.000000
     76         -2.604515   1.000000
     77         -2.599090   1.000000
     78         -2.553808   1.000000
     79         -2.451620   1.000000
     80         -2.429049   1.000000
     81         -2.376123   1.000000
     82         -2.330349   1.000000
     83         -2.265924   1.000000
     84         -2.259250   1.000000
     85         -1.984597   1.000000
     86         -1.830946   1.000000
     87         -0.872543   0.992207
     88         -0.715381   0.577642
     89         -0.226411   0.000000
     90         -0.150095   0.000000
     91         -0.098629   0.000000
     92          0.150491   0.000000
     93          1.064220   0.000000
     94          1.457247   0.000000
     95          1.910035   0.000000
     96          2.152902   0.000000
     97          3.162429   0.000000
     98          3.364947   0.000000
     99          4.556506   0.000000
    100          4.613697   0.000000
    101          5.073211   0.000000
    102          5.170572   0.000000
    103          5.369399   0.000000
    104          5.530186   0.000000
    105          5.572777   0.000000
 
  0.5000000E+00  0.5000000E+00  0.1262379E-14  0.6250000E-01
      1         -7.114585   1.000000
      2         -7.114559   1.000000
      3         -6.624750   1.000000
      4         -6.624742   1.000000
      5         -6.390175   1.000000
      6         -6.390165   1.000000
      7         -6.250108   1.000000
      8         -6.250098   1.000000
      9         -6.106134   1.000000
     10         -6.106118   1.000000
     11         -5.996944   1.000000
     12         -5.996905   1.000000
     13         -5.941011   1.000000
     14         -5.940971   1.000000
     15         -5.723256   1.000000
     16         -5.723247   1.000000
     17         -5.683417   1.000000
     18         -5.683389   1.000000
     19         -5.621544   1.000000
     20         -5.621520   1.000000
     21         -5.558776   1.000000
     22         -5.558729   1.000000
     23         -5.377864   1.000000
     24         -5.377801   1.000000
     25         -5.354158   1.000000
     26         -5.354147   1.000000
     27         -5.270218   1.000000
     28         -5.270188   1.000000
     29         -5.137360   1.000000
     30         -5.137336   1.000000
     31         -5.004366   1.000000
     32         -5.004350   1.000000
     33         -4.915411   1.000000
     34         -4.915397   1.000000
     35         -4.849207   1.000000
     36         -4.849162   1.000000
     37         -4.810572   1.000000
     38         -4.810555   1.000000
     39         -4.715114   1.000000
     40         -4.715097   1.000000
     41         -4.586771   1.000000
     42         -4.586760   1.000000
     43         -4.200937   1.000000
     44         -4.200915   1.000000
     45         -3.766485   1.000000
     46         -3.766471   1.000000
     47         -3.574996   1.000000
     48         -3.574992   1.000000
     49         -3.509029   1.000000
     50         -3.509017   1.000000
     51         -3.419888   1.000000
     52         -3.419878   1.000000
     53         -3.358808   1.000000
     54         -3.358803   1.000000
     55         -3.281095   1.000000
     56         -3.281080   1.000000
     57         -3.181938   1.000000
     58         -3.181927   1.000000
     59         -3.095761   1.000000
     60         -3.095752   1.000000
     61         -3.054889   1.000000
     62         -3.054878   1.000000
     63         -2.948293   1.000000
     64         -2.948291   1.000000
     65         -2.909938   1.000000
     66         -2.909938   1.000000
     67         -2.875545   1.000000
     68         -2.875533   1.000000
     69         -2.819949   1.000000
     70         -2.819947   1.000000
     71         -2.761322   1.000000
     72         -2.761309   1.000000
     73         -2.749198   1.000000
     74         -2.749196   1.000000
     75         -2.706970   1.000000
     76         -2.706963   1.000000
     77         -2.518211   1.000000
     78         -2.518210   1.000000
     79         -2.451907   1.000000
     80         -2.451902   1.000000
     81         -2.427418   1.000000
     82         -2.427416   1.000000
     83         -2.369699   1.000000
     84         -2.369697   1.000000
     85         -1.881245   1.000000
     86         -1.881226   1.000000
     87         -0.802499   0.923340
     88         -0.802492   0.923326
     89         -0.187100   0.000000
     90         -0.187091   0.000000
     91          0.088872   0.000000
     92          0.088875   0.000000
     93          1.273065   0.000000
     94          1.273067   0.000000
     95          2.109141   0.000000
     96          2.109168   0.000000
     97          3.252874   0.000000
     98          3.252890   0.000000
     99          4.561910   0.000000
    100          4.561939   0.000000
    101          5.093465   0.000000
    102          5.093468   0.000000
    103          5.487517   0.000000
    104          5.487521   0.000000
    105          5.657733   0.000000
 
  0.1262379E-14  0.5000000E+00  0.1262379E-14  0.6250000E-01
      1         -7.114580   1.000000
      2         -7.114554   1.000000
      3         -6.624759   1.000000
      4         -6.624751   1.000000
      5         -6.390170   1.000000
      6         -6.390160   1.000000
      7         -6.250106   1.000000
      8         -6.250096   1.000000
      9         -6.106134   1.000000
     10         -6.106118   1.000000
     11         -5.996922   1.000000
     12         -5.996884   1.000000
     13         -5.941004   1.000000
     14         -5.940964   1.000000
     15         -5.723252   1.000000
     16         -5.723243   1.000000
     17         -5.683428   1.000000
     18         -5.683400   1.000000
     19         -5.621551   1.000000
     20         -5.621525   1.000000
     21         -5.558789   1.000000
     22         -5.558741   1.000000
     23         -5.377887   1.000000
     24         -5.377824   1.000000
     25         -5.354154   1.000000
     26         -5.354143   1.000000
     27         -5.270193   1.000000
     28         -5.270162   1.000000
     29         -5.137318   1.000000
     30         -5.137293   1.000000
     31         -5.004364   1.000000
     32         -5.004348   1.000000
     33         -4.915417   1.000000
     34         -4.915403   1.000000
     35         -4.849252   1.000000
     36         -4.849207   1.000000
     37         -4.810573   1.000000
     38         -4.810556   1.000000
     39         -4.715124   1.000000
     40         -4.715107   1.000000
     41         -4.586761   1.000000
     42         -4.586750   1.000000
     43         -4.200930   1.000000
     44         -4.200909   1.000000
     45         -3.766517   1.000000
     46         -3.766503   1.000000
     47         -3.574996   1.000000
     48         -3.574991   1.000000
     49         -3.509011   1.000000
     50         -3.509000   1.000000
     51         -3.419926   1.000000
     52         -3.419916   1.000000
     53         -3.358811   1.000000
     54         -3.358806   1.000000
     55         -3.281112   1.000000
     56         -3.281098   1.000000
     57         -3.181915   1.000000
     58         -3.181904   1.000000
     59         -3.095749   1.000000
     60         -3.095740   1.000000
     61         -3.054872   1.000000
     62         -3.054860   1.000000
     63         -2.948290   1.000000
     64         -2.948288   1.000000
     65         -2.909918   1.000000
     66         -2.909917   1.000000
     67         -2.875562   1.000000
     68         -2.875551   1.000000
     69         -2.819967   1.000000
     70         -2.819965   1.000000
     71         -2.761310   1.000000
     72         -2.761297   1.000000
     73         -2.749199   1.000000
     74         -2.749198   1.000000
     75         -2.706959   1.000000
     76         -2.706952   1.000000
     77         -2.518213   1.000000
     78         -2.518212   1.000000
     79         -2.451896   1.000000
     80         -2.451891   1.000000
     81         -2.427426   1.000000
     82         -2.427424   1.000000
     83         -2.369707   1.000000
     84         -2.369705   1.000000
     85         -1.881247   1.000000
     86         -1.881227   1.000000
     87         -0.802516   0.923374
     88         -0.802509   0.923359
     89         -0.187108   0.000000
     90         -0.187099   0.000000
     91          0.088880   0.000000
     92          0.088883   0.000000
     93          1.273077   0.000000
     94          1.273080   0.000000
     95          2.109154   0.000000
     96          2.109182   0.000000
     97          3.252882   0.000000
     98          3.252899   0.000000
     99          4.561897   0.000000
    100          4.561926   0.000000
    101          5.093460   0.000000
    102          5.093463   0.000000
    103          5.487488   0.000000
    104          5.487492   0.000000
    105          5.657719   0.000000
 
  0.5000000E+00  0.2500000E+00  0.1262379E-14  0.1250000E+00
      1         -7.389468   1.000000
      2         -6.745694   1.000000
      3         -6.724476   1.000000
      4         -6.718322   1.000000
      5         -6.620458   1.000000
      6         -6.604828   1.000000
      7         -6.510810   1.000000
      8         -6.376985   1.000000
      9         -6.265263   1.000000
     10         -6.258454   1.000000
     11         -6.213602   1.000000
     12         -6.156850   1.000000
     13         -6.055409   1.000000
     14         -5.997981   1.000000
     15         -5.985892   1.000000
     16         -5.815161   1.000000
     17         -5.723249   1.000000
     18         -5.708576   1.000000
     19         -5.614367   1.000000
     20         -5.604199   1.000000
     21         -5.532471   1.000000
     22         -5.488305   1.000000
     23         -5.430590   1.000000
     24         -5.284313   1.000000
     25         -5.280628   1.000000
     26         -5.142141   1.000000
     27         -5.112882   1.000000
     28         -5.042574   1.000000
     29         -4.987274   1.000000
     30         -4.956340   1.000000
     31         -4.937451   1.000000
     32         -4.837221   1.000000
     33         -4.794761   1.000000
     34         -4.740714   1.000000
     35         -4.716033   1.000000
     36         -4.634217   1.000000
     37         -4.593909   1.000000
     38         -4.574558   1.000000
     39         -4.531782   1.000000
     40         -4.422106   1.000000
     41         -4.297122   1.000000
     42         -4.252736   1.000000
     43         -4.075826   1.000000
     44         -3.960950   1.000000
     45         -3.950881   1.000000
     46         -3.831423   1.000000
     47         -3.749308   1.000000
     48         -3.748589   1.000000
     49         -3.685747   1.000000
     50         -3.597243   1.000000
     51         -3.511707   1.000000
     52         -3.468617   1.000000
     53         -3.424104   1.000000
     54         -3.421758   1.000000
     55         -3.354013   1.000000
     56         -3.338537   1.000000