       N       E                     dE             d eps       ncg     rms          rms(c)
DAV:   1     0.149653347041E+04    0.14965E+04   -0.67337E+04  2102   0.146E+03
DAV:   2     0.139799694060E+03   -0.13567E+04   -0.12543E+04  2197   0.367E+02
DAV:   3    -0.337315203839E+02   -0.17353E+03   -0.15606E+03  2490   0.170E+02
DAV:   4    -0.446391344457E+02   -0.10908E+02   -0.10739E+02  2808   0.486E+01
DAV:   5    -0.448741639702E+02   -0.23503E+00   -0.23446E+00  2848   0.679E+00    0.261E+01
DAV:   6    -0.429841210063E+02    0.18900E+01   -0.75298E+01  2784   0.992E+01    0.151E+01
DAV:   7    -0.385348588447E+02    0.44493E+01   -0.25029E+01  2600   0.120E+02    0.104E+01
DAV:   8    -0.389334539902E+02   -0.39860E+00   -0.49402E+00  3174   0.141E+01    0.660E+00
DAV:   9    -0.389625310216E+02   -0.29077E-01   -0.39087E+00  2936   0.423E+01    0.431E+00
DAV:  10    -0.387127748675E+02    0.24976E+00   -0.16133E+00  3008   0.254E+01    0.216E+00
DAV:  11    -0.386429790525E+02    0.69796E-01   -0.41600E-01  3096   0.102E+01    0.678E-01
DAV:  12    -0.386409369854E+02    0.20421E-02   -0.85794E-02  3095   0.474E+00    0.282E-01
DAV:  13    -0.386411706626E+02   -0.23368E-03   -0.23049E-02  2911   0.195E+00    0.109E-01
DAV:  14    -0.386411144985E+02    0.56164E-04   -0.38718E-03  2743   0.880E-01    0.104E-01
DAV:  15    -0.386408477954E+02    0.26670E-03   -0.88898E-04  2310   0.452E-01    0.738E-02
DAV:  16    -0.386406402426E+02    0.20755E-03   -0.65933E-04  3030   0.416E-01    0.350E-02
DAV:  17    -0.386406738912E+02   -0.33649E-04   -0.18373E-04  2943   0.167E-01    0.237E-02
DAV:  18    -0.386407784359E+02   -0.10454E-03   -0.66119E-05  2981   0.114E-01    0.133E-02
DAV:  19    -0.386408758073E+02   -0.97371E-04   -0.22693E-05  2589   0.917E-02    0.927E-03
DAV:  20    -0.386410008690E+02   -0.12506E-03   -0.18906E-05  2920   0.585E-02    0.912E-03
DAV:  21    -0.386411021959E+02   -0.10133E-03   -0.11414E-05  2306   0.511E-02    0.533E-03
DAV:  22    -0.386411524234E+02   -0.50228E-04   -0.44576E-06  1810   0.273E-02    0.430E-03
DAV:  23    -0.386412058610E+02   -0.53438E-04   -0.52389E-06  1992   0.244E-02    0.301E-03
DAV:  24    -0.386412531908E+02   -0.47330E-04   -0.35191E-06  1636   0.210E-02    0.255E-03
DAV:  25    -0.386412757815E+02   -0.22591E-04   -0.14776E-06  1378   0.123E-02    0.172E-03
DAV:  26    -0.386412868683E+02   -0.11087E-04   -0.61388E-07  1308   0.966E-03    0.120E-03
DAV:  27    -0.386412987465E+02   -0.11878E-04   -0.45601E-07  1307   0.689E-03    0.765E-04
DAV:  28    -0.386413070198E+02   -0.82733E-05   -0.39274E-07  1344   0.510E-03    0.740E-04
DAV:  29    -0.386413096593E+02   -0.26395E-05   -0.12398E-07  1342   0.404E-03    0.527E-04
DAV:  30    -0.386413138053E+02   -0.41460E-05   -0.12271E-07  1310   0.385E-03    0.498E-04
DAV:  31    -0.386413149290E+02   -0.11237E-05   -0.58005E-08  1307   0.236E-03    0.374E-04
DAV:  32    -0.386413153210E+02   -0.39194E-06   -0.23901E-08  1232   0.127E-03
   1 F= -.38641315E+02 E0= -.38614993E+02  d E =-.386413E+02
       N       E                     dE             d eps       ncg     rms          rms(c)
DAV:   1    -0.386916861903E+02   -0.50371E-01   -0.68222E+01  2100   0.228E+01    0.732E-01
DAV:   2    -0.388055977320E+02   -0.11391E+00   -0.11984E+00  3238   0.871E+00    0.957E-01
DAV:   3    -0.387976767345E+02    0.79210E-02   -0.38732E-02  2671   0.368E+00    0.528E-01
DAV:   4    -0.387991984375E+02   -0.15217E-02   -0.12801E-02  2910   0.355E+00    0.433E-01
DAV:   5    -0.387965778760E+02    0.26206E-02   -0.12346E-02  3126   0.403E+00    0.267E-01
DAV:   6    -0.387956694786E+02    0.90840E-03   -0.76124E-03  3325   0.193E+00    0.122E-01
DAV:   7    -0.387955225571E+02    0.14692E-03   -0.21305E-03  3073   0.938E-01    0.647E-02
DAV:   8    -0.387954747789E+02    0.47778E-04   -0.70639E-04  2589   0.433E-01    0.543E-02
DAV:   9    -0.387954324525E+02    0.42326E-04   -0.34530E-04  2776   0.235E-01    0.179E-02
DAV:  10    -0.387954283419E+02    0.41107E-05   -0.41874E-05  2711   0.962E-02    0.785E-03
DAV:  11    -0.387954293760E+02   -0.10341E-05   -0.17545E-05  2615   0.747E-02    0.608E-03
DAV:  12    -0.387954295111E+02   -0.13510E-06   -0.52224E-06  1956   0.418E-02
   2 F= -.38795430E+02 E0= -.38769551E+02  d E =-.154114E+00
       N       E                     dE             d eps       ncg     rms          rms(c)
DAV:   1    -0.387464579787E+02    0.48971E-01   -0.69151E+01  2100   0.226E+01    0.647E-01
DAV:   2    -0.388612669074E+02   -0.11481E+00   -0.12058E+00  3220   0.862E+00    0.910E-01
DAV:   3    -0.388534193824E+02    0.78475E-02   -0.37199E-02  2663   0.361E+00    0.482E-01
DAV:   4    -0.388534939011E+02   -0.74519E-04   -0.92372E-03  3102   0.262E+00    0.385E-01
DAV:   5    -0.388520380032E+02    0.14559E-02   -0.79381E-03  3094   0.309E+00    0.260E-01
DAV:   6    -0.388513027573E+02    0.73525E-03   -0.62686E-03  3349   0.176E+00    0.117E-01
DAV:   7    -0.388511784804E+02    0.12428E-03   -0.20391E-03  3049   0.972E-01    0.534E-02
DAV:   8    -0.388511719078E+02    0.65726E-05   -0.68995E-04  2638   0.409E-01    0.526E-02
DAV:   9    -0.388511317632E+02    0.40145E-04   -0.27083E-04  2800   0.214E-01    0.203E-02
DAV:  10    -0.388511240282E+02    0.77350E-05   -0.35625E-05  2815   0.105E-01    0.778E-03
DAV:  11    -0.388511252189E+02   -0.11907E-05   -0.17456E-05  2663   0.730E-02    0.546E-03
DAV:  12    -0.388511259362E+02   -0.71729E-06   -0.59777E-06  1948   0.383E-02
   3 F= -.38851126E+02 E0= -.38825754E+02  d E =-.209811E+00
       N       E                     dE             d eps       ncg     rms          rms(c)
DAV:   1    -0.388508028717E+02    0.32235E-03   -0.75129E-01  2104   0.232E+00    0.497E-02
DAV:   2    -0.388517297710E+02   -0.92690E-03   -0.94407E-03  3218   0.653E-01    0.500E-02
DAV:   3    -0.388517188814E+02    0.10890E-04   -0.16205E-04  2684   0.219E-01    0.340E-02
DAV:   4    -0.388517111626E+02    0.77188E-05   -0.39809E-05  2837   0.153E-01    0.239E-02
DAV:   5    -0.388517069205E+02    0.42421E-05   -0.32289E-05  3014   0.132E-01    0.844E-03
DAV:   6    -0.388517065859E+02    0.33455E-06   -0.68870E-06  2230   0.643E-02
   4 F= -.38851707E+02 E0= -.38826385E+02  d E =-.210391E+00
       N       E                     dE             d eps       ncg     rms          rms(c)
DAV:   1    -0.388634302300E+02   -0.11723E-01   -0.22265E+01  2103   0.132E+01    0.324E-01
DAV:   2    -0.388995446276E+02   -0.36114E-01   -0.37934E-01  3237   0.489E+00    0.493E-01
DAV:   3    -0.388969039436E+02    0.26407E-02   -0.11656E-02  2664   0.199E+00    0.242E-01
DAV:   4    -0.388966577731E+02    0.24617E-03   -0.22022E-03  3190   0.100E+00    0.194E-01
DAV:   5    -0.388963247658E+02    0.33301E-03   -0.14839E-03  2806   0.132E+00    0.142E-01
DAV:   6    -0.388960304818E+02    0.29428E-03   -0.16357E-03  3485   0.756E-01    0.670E-02
DAV:   7    -0.388960048287E+02    0.25653E-04   -0.61327E-04  2974   0.467E-01    0.293E-02
DAV:   8    -0.388960267045E+02   -0.21876E-04   -0.27351E-04  2661   0.218E-01    0.307E-02
DAV:   9    -0.388960135811E+02    0.13123E-04   -0.44301E-05  2573   0.112E-01    0.178E-02
DAV:  10    -0.388960083200E+02    0.52612E-05   -0.18289E-05  2349   0.831E-02    0.631E-03
DAV:  11    -0.388960087388E+02   -0.41878E-06   -0.11525E-05  2166   0.508E-02    0.391E-03
DAV:  12    -0.388960089387E+02   -0.19997E-06   -0.32632E-06  1685   0.267E-02
   5 F= -.38896009E+02 E0= -.38870876E+02  d E =-.443024E-01
       N       E                     dE             d eps       ncg     rms          rms(c)
DAV:   1    -0.388622876046E+02    0.33721E-01   -0.48747E+01  2103   0.196E+01    0.503E-01
DAV:   2    -0.389510457737E+02   -0.88758E-01   -0.93130E-01  3238   0.747E+00    0.761E-01
DAV:   3    -0.389444951347E+02    0.65506E-02   -0.25533E-02  2719   0.297E+00    0.368E-01
DAV:   4    -0.389439364742E+02    0.55866E-03   -0.47996E-03  3189   0.141E+00    0.300E-01
DAV:   5    -0.389432867300E+02    0.64974E-03   -0.29144E-03  2773   0.183E+00    0.231E-01
DAV:   6    -0.389425485545E+02    0.73818E-03   -0.34829E-03  3421   0.112E+00    0.124E-01
DAV:   7    -0.389424224165E+02    0.12614E-03   -0.15007E-03  3150   0.765E-01    0.488E-02
DAV:   8    -0.389424789465E+02   -0.56530E-04   -0.66911E-04  2725   0.357E-01    0.470E-02
DAV:   9    -0.389424549289E+02    0.24018E-04   -0.14041E-04  2662   0.202E-01    0.282E-02
DAV:  10    -0.389424420409E+02    0.12888E-04   -0.38204E-05  2798   0.147E-01    0.124E-02
DAV:  11    -0.389424419510E+02    0.89902E-07   -0.26805E-05  3054   0.857E-02    0.469E-03
DAV:  12    -0.389424428873E+02   -0.93627E-06   -0.73052E-06  1838   0.309E-02
   6 F= -.38942443E+02 E0= -.38917711E+02  d E =-.907363E-01
       N       E                     dE             d eps       ncg     rms          rms(c)
DAV:   1    -0.385669433317E+02    0.37550E+00   -0.19821E+02  2103   0.403E+01    0.116E+00
DAV:   2    -0.390111943821E+02   -0.44425E+00   -0.45891E+00  3221   0.147E+01    0.148E+00
DAV:   3    -0.389879347777E+02    0.23260E-01   -0.95661E-02  2783   0.580E+00    0.721E-01
DAV:   4    -0.389869103504E+02    0.10244E-02   -0.16989E-02  3096   0.274E+00    0.622E-01
DAV:   5    -0.389858086596E+02    0.11017E-02   -0.87999E-03  2792   0.333E+00    0.545E-01
DAV:   6    -0.389822367936E+02    0.35719E-02   -0.12984E-02  3656   0.253E+00    0.312E-01
DAV:   7    -0.389812478769E+02    0.98892E-03   -0.55219E-03  3339   0.159E+00    0.128E-01
DAV:   8    -0.389813741105E+02   -0.12623E-03   -0.24477E-03  2800   0.595E-01    0.735E-02
DAV:   9    -0.389813549447E+02    0.19166E-04   -0.46829E-04  2727   0.379E-01    0.418E-02
DAV:  10    -0.389813453779E+02    0.95668E-05   -0.15723E-04  2692   0.339E-01    0.194E-02
DAV:  11    -0.389813434753E+02    0.19026E-05   -0.37200E-05  3183   0.133E-01    0.858E-03
DAV:  12    -0.389813460855E+02   -0.26103E-05   -0.11654E-05  2453   0.403E-02    0.526E-03
DAV:  13    -0.389813481657E+02   -0.20802E-05   -0.13383E-06  1380   0.167E-02    0.219E-03
DAV:  14    -0.389813503204E+02   -0.21547E-05   -0.11043E-06  1322   0.120E-02    0.156E-03
DAV:  15    -0.389813516963E+02   -0.13759E-05   -0.61761E-07  1348   0.886E-03    0.860E-04
DAV:  16    -0.389813528635E+02   -0.11672E-05   -0.18904E-07  1336   0.499E-03    0.732E-04
DAV:  17    -0.389813532139E+02   -0.35044E-06   -0.12497E-07  1297   0.396E-03
   7 F= -.38981353E+02 E0= -.38957790E+02  d E =-.129647E+00
       N       E                     dE             d eps       ncg     rms          rms(c)
DAV:   1    -0.389658836250E+02    0.15469E-01   -0.19752E+01  2104   0.126E+01    0.310E-01
DAV:   2    -0.389995333643E+02   -0.33650E-01   -0.35169E-01  3203   0.455E+00    0.470E-01
DAV:   3    -0.389971401199E+02    0.23932E-02   -0.99306E-03  2671   0.202E+00    0.243E-01
DAV:   4    -0.389969611966E+02    0.17892E-03   -0.20531E-03  3237   0.981E-01    0.195E-01
DAV:   5    -0.389966397599E+02    0.32144E-03   -0.15288E-03  2828   0.137E+00    0.143E-01
DAV:   6    -0.389963570108E+02    0.28275E-03   -0.13525E-03  3505   0.835E-01    0.755E-02
DAV:   7    -0.389963241659E+02    0.32845E-04   -0.59558E-04  3039   0.476E-01    0.279E-02
DAV:   8    -0.389963358599E+02   -0.11694E-04   -0.23817E-04  2749   0.232E-01    0.282E-02
DAV:   9    -0.389963285236E+02    0.73363E-05   -0.60316E-05  2684   0.135E-01    0.184E-02
DAV:  10    -0.389963237412E+02    0.47824E-05   -0.10182E-05  2500   0.742E-02    0.920E-03
DAV:  11    -0.389963234406E+02    0.30061E-06   -0.97381E-06  2287   0.405E-02
   8 F= -.38996323E+02 E0= -.38973089E+02  d E =-.149702E-01
       N       E                     dE             d eps       ncg     rms          rms(c)
DAV:   1    -0.389950306091E+02    0.12931E-02   -0.43441E+00  2104   0.585E+00    0.126E-01
DAV:   2    -0.390011312622E+02   -0.61007E-02   -0.63259E-02  3193   0.187E+00    0.186E-01
DAV:   3    -0.390007977421E+02    0.33352E-03   -0.18240E-03  2598   0.791E-01    0.998E-02
DAV:   4    -0.390007504747E+02    0.47267E-04   -0.36876E-04  3211   0.359E-01    0.764E-02
DAV:   5    -0.390007408987E+02    0.95760E-05   -0.31655E-04  2899   0.650E-01    0.635E-02
DAV:   6    -0.390006723281E+02    0.68571E-04   -0.26492E-04  3752   0.492E-01    0.321E-02
DAV:   7    -0.390006603297E+02    0.11998E-04   -0.10490E-04  3222   0.215E-01    0.115E-02
DAV:   8    -0.390006613345E+02   -0.10048E-05   -0.30833E-05  2799   0.776E-02    0.108E-02
DAV:   9    -0.390006602357E+02    0.10988E-05   -0.10764E-05  2022   0.605E-02    0.696E-03
DAV:  10    -0.390006597970E+02    0.43874E-06   -0.22587E-06  1469   0.290E-02
   9 F= -.39000660E+02 E0= -.38977555E+02  d E =-.193066E-01
       N       E                     dE             d eps       ncg     rms          rms(c)
DAV:   1    -0.389778296375E+02    0.22831E-01   -0.17379E+01  2105   0.117E+01    0.286E-01
DAV:   2    -0.390069822090E+02   -0.29153E-01   -0.30482E-01  3188   0.424E+00    0.440E-01
DAV:   3    -0.390048761578E+02    0.21061E-02   -0.88741E-03  2647   0.191E+00    0.224E-01
DAV:   4    -0.390047057708E+02    0.17039E-03   -0.17516E-03  3213   0.880E-01    0.180E-01
DAV:   5    -0.390044338507E+02    0.27192E-03   -0.12231E-03  2845   0.120E+00    0.132E-01
DAV:   6    -0.390041964166E+02    0.23743E-03   -0.11062E-03  3514   0.756E-01    0.727E-02
DAV:   7    -0.390041622877E+02    0.34129E-04   -0.52066E-04  3112   0.439E-01    0.261E-02
DAV:   8    -0.390041729675E+02   -0.10680E-04   -0.20663E-04  2782   0.218E-01    0.260E-02
DAV:   9    -0.390041670009E+02    0.59666E-05   -0.52262E-05  2629   0.124E-01    0.175E-02
DAV:  10    -0.390041626260E+02    0.43749E-05   -0.83589E-06  2280   0.688E-02    0.919E-03
DAV:  11    -0.390041621764E+02    0.44963E-06   -0.89493E-06  2198   0.390E-02
  10 F= -.39004162E+02 E0= -.38981301E+02  d E =-.228090E-01
       N       E                     dE             d eps       ncg     rms          rms(c)
DAV:   1    -0.389789379247E+02    0.25225E-01   -0.16571E+01  2111   0.120E+01    0.292E-01
DAV:   2    -0.390155534674E+02   -0.36616E-01   -0.37778E-01  3170   0.465E+00    0.439E-01
DAV:   3    -0.390132407830E+02    0.23127E-02   -0.97384E-03  2599   0.231E+00    0.212E-01
DAV:   4    -0.390130625314E+02    0.17825E-03   -0.17217E-03  3078   0.888E-01    0.182E-01
DAV:   5    -0.390127970887E+02    0.26544E-03   -0.81736E-04  3038   0.891E-01    0.138E-01
DAV:   6    -0.390125296168E+02    0.26747E-03   -0.84894E-04  3348   0.647E-01    0.893E-02
DAV:   7    -0.390124344742E+02    0.95143E-04   -0.59504E-04  3360   0.407E-01    0.258E-02
DAV:   8    -0.390124402267E+02   -0.57525E-05   -0.17214E-04  2775   0.216E-01    0.191E-02
DAV:   9    -0.390124400259E+02    0.20076E-06   -0.47033E-05  2536   0.111E-01    0.158E-02
DAV:  10    -0.390124372334E+02    0.27925E-05   -0.81364E-06  2104   0.611E-02    0.819E-03
DAV:  11    -0.390124371166E+02    0.11674E-06   -0.10379E-05  2456   0.415E-02    0.443E-03
DAV:  12    -0.390124370379E+02    0.78726E-07   -0.17831E-06  1296   0.221E-02
  11 F= -.39012437E+02 E0= -.38989552E+02  d E =-.827486E-02
       N       E                     dE             d eps       ncg     rms          rms(c)
DAV:   1    -0.390075133753E+02    0.49237E-02   -0.37875E+00  2110   0.571E+00    0.121E-01
DAV:   2    -0.390145325399E+02   -0.70192E-02   -0.72090E-02  3150   0.204E+00    0.189E-01
DAV:   3    -0.390141446263E+02    0.38791E-03   -0.20334E-03  2583   0.953E-01    0.939E-02
DAV:   4    -0.390141078982E+02    0.36728E-04   -0.33261E-04  3085   0.359E-01    0.794E-02
DAV:   5    -0.390140675518E+02    0.40346E-04   -0.17460E-04  2725   0.450E-01    0.620E-02
DAV:   6    -0.390140086442E+02    0.58908E-04   -0.19744E-04  3498   0.359E-01    0.384E-02
DAV:   7    -0.390139918317E+02    0.16813E-04   -0.13696E-04  3264   0.187E-01    0.103E-02
DAV:   8    -0.390139931622E+02   -0.13305E-05   -0.30507E-05  2351   0.780E-02    0.909E-03
DAV:   9    -0.390139928983E+02    0.26388E-06   -0.93598E-06  1942   0.487E-02
  12 F= -.39013993E+02 E0= -.38991073E+02  d E =-.983072E-02
       N       E                     dE             d eps       ncg     rms          rms(c)
DAV:   1    -0.389834393847E+02    0.30554E-01   -0.15148E+01  2111   0.115E+01    0.277E-01
DAV:   2    -0.390164904718E+02   -0.33051E-01   -0.34058E-01  3196   0.442E+00    0.420E-01
DAV:   3    -0.390143523918E+02    0.21381E-02   -0.87903E-03  2615   0.217E+00    0.201E-01
DAV:   4    -0.390141903388E+02    0.16205E-03   -0.15600E-03  3102   0.827E-01    0.172E-01
DAV:   5    -0.390139570826E+02    0.23326E-03   -0.70285E-04  3006   0.837E-01    0.131E-01
DAV:   6    -0.390137247244E+02    0.23236E-03   -0.73484E-04  3284   0.607E-01    0.864E-02
DAV:   7    -0.390136352489E+02    0.89476E-04   -0.56214E-04  3368   0.385E-01    0.253E-02
DAV:   8    -0.390136399632E+02   -0.47143E-05   -0.15728E-04  2766   0.207E-01    0.183E-02
DAV:   9    -0.390136401260E+02   -0.16281E-06   -0.45288E-05  2520   0.107E-01    0.155E-02
DAV:  10    -0.390136374420E+02    0.26840E-05   -0.74719E-06  2048   0.572E-02    0.828E-03
DAV:  11    -0.390136371688E+02    0.27314E-06   -0.96516E-06  2408   0.400E-02
  13 F= -.39013637E+02 E0= -.38990653E+02  d E =-.947499E-02
       N       E                     dE             d eps       ncg     rms          rms(c)
DAV:   1    -0.390017480596E+02    0.11889E-01   -0.72362E+00  2101   0.790E+00    0.208E-01
DAV:   2    -0.390156176789E+02   -0.13870E-01   -0.14495E-01  3156   0.332E+00    0.296E-01
DAV:   3    -0.390146104095E+02    0.10073E-02   -0.61076E-03  2607   0.190E+00    0.123E-01
DAV:   4    -0.390145357502E+02    0.74659E-04   -0.11540E-03  2918   0.706E-01    0.110E-01
DAV:   5    -0.390144444398E+02    0.91310E-04   -0.45585E-04  3014   0.440E-01    0.803E-02
DAV:   6    -0.390143732515E+02    0.71188E-04   -0.30964E-04  3030   0.340E-01    0.514E-02
DAV:   7    -0.390143406596E+02    0.32592E-04   -0.22747E-04  3566   0.274E-01    0.157E-02
DAV:   8    -0.390143409423E+02   -0.28269E-06   -0.56631E-05  2768   0.127E-01    0.951E-03
DAV:   9    -0.390143412142E+02   -0.27189E-06   -0.12250E-05  2432   0.549E-02    0.982E-03
DAV:  10    -0.390143404682E+02    0.74602E-06   -0.47606E-06  1951   0.348E-02
  14 F= -.39014340E+02 E0= -.38991409E+02  d E =-.101783E-01
       N       E                     dE             d eps       ncg     rms          rms(c)
DAV:   1    -0.389957167368E+02    0.18624E-01   -0.12012E+01  2107   0.103E+01    0.256E-01
DAV:   2    -0.390201516814E+02   -0.24435E-01   -0.25360E-01  3213   0.383E+00    0.375E-01
DAV:   3    -0.390185235703E+02    0.16281E-02   -0.78441E-03  2583   0.197E+00    0.170E-01
DAV:   4    -0.390183994879E+02    0.12408E-03   -0.14630E-03  3167   0.952E-01    0.151E-01
DAV:   5    -0.390181274834E+02    0.27200E-03   -0.68225E-04  3398   0.648E-01    0.937E-02
DAV:   6    -0.390180040604E+02    0.12342E-03   -0.58883E-04  3141   0.221E-01    0.597E-02
DAV:   7    -0.390179599049E+02    0.44155E-04   -0.26717E-04  2772   0.255E-01    0.174E-02
DAV:   8    -0.390179618048E+02   -0.18999E-05   -0.73494E-05  2856   0.154E-01    0.126E-02
DAV:   9    -0.390179615884E+02    0.21642E-06   -0.23618E-05  2486   0.753E-02    0.108E-02
DAV:  10    -0.390179603194E+02    0.12690E-05   -0.47085E-06  2095   0.331E-02    0.530E-03
DAV:  11    -0.390179599854E+02    0.33402E-06   -0.30512E-06  1576   0.294E-02
  15 F= -.39017960E+02 E0= -.38994878E+02  d E =-.361952E-02
       N       E                     dE             d eps       ncg     rms          rms(c)
DAV:   1    -0.390179649903E+02   -0.46709E-05   -0.60316E-03  2127   0.232E-01    0.543E-03
DAV:   2    -0.390179766539E+02   -0.11664E-04   -0.12208E-04  3216   0.928E-02    0.770E-03
DAV:   3    -0.390179759056E+02    0.74832E-06   -0.35657E-06  1756   0.503E-02
  16 F= -.39017976E+02 E0= -.38994887E+02  d E =-.363544E-02
       N       E                     dE             d eps       ncg     rms          rms(c)
DAV:   1    -0.390127968064E+02    0.51798E-02   -0.43855E+00  2155   0.613E+00    0.164E-01
DAV:   2    -0.390208482460E+02   -0.80514E-02   -0.85257E-02  3231   0.244E+00    0.256E-01
DAV:   3    -0.390200236753E+02    0.82457E-03   -0.35815E-03  2567   0.146E+00    0.109E-01
DAV:   4    -0.390199609589E+02    0.62716E-04   -0.63643E-04  2957   0.481E-01    0.955E-02
DAV:   5    -0.390198894142E+02    0.71545E-04   -0.25000E-04  2932   0.352E-01    0.700E-02
DAV:   6    -0.390198224681E+02    0.66946E-04   -0.18938E-04  3113   0.280E-01    0.481E-02
DAV:   7    -0.390197826231E+02    0.39845E-04   -0.17795E-04  3332   0.215E-01    0.145E-02
DAV:   8    -0.390197826946E+02   -0.71450E-07   -0.43586E-05  2640   0.109E-01    0.799E-03
DAV:   9    -0.390197831201E+02   -0.42550E-06   -0.10836E-05  2256   0.497E-02    0.841E-03
DAV:  10    -0.390197825250E+02    0.59509E-06   -0.27958E-06  1704   0.283E-02
  17 F= -.39019783E+02 E0= -.38996666E+02  d E =-.180662E-02
       N       E                     dE             d eps       ncg     rms          rms(c)
DAV:   1    -0.390186350172E+02    0.11481E-02   -0.11313E+00  2155   0.310E+00    0.723E-02
DAV:   2    -0.390203714141E+02   -0.17364E-02   -0.18275E-02  3239   0.111E+00    0.115E-01
DAV:   3    -0.390202173435E+02    0.15407E-03   -0.79252E-04  2552   0.647E-01    0.505E-02
DAV:   4    -0.390202038616E+02    0.13482E-04   -0.13136E-04  2934   0.222E-01    0.443E-02
DAV:   5    -0.390201864039E+02    0.17458E-04   -0.57299E-05  2818   0.183E-01    0.316E-02
DAV:   6    -0.390201715495E+02    0.14854E-04   -0.51499E-05  3162   0.154E-01    0.203E-02
DAV:   7    -0.390201652080E+02    0.63415E-05   -0.37415E-05  3306   0.105E-01    0.529E-03
DAV:   8    -0.390201653728E+02   -0.16481E-06   -0.78047E-06  2015   0.433E-02
  18 F= -.39020165E+02 E0= -.38997031E+02  d E =-.218947E-02
       N       E                     dE             d eps       ncg     rms          rms(c)
DAV:   1    -0.390128693752E+02    0.72958E-02   -0.45213E+00  2155   0.622E+00    0.170E-01
DAV:   2    -0.390212470723E+02   -0.83777E-02   -0.88725E-02  3240   0.256E+00    0.266E-01
DAV:   3    -0.390203610001E+02    0.88607E-03   -0.39459E-03  2584   0.157E+00    0.111E-01
DAV:   4    -0.390202922022E+02    0.68798E-04   -0.70478E-04  2957   0.516E-01    0.968E-02
DAV:   5    -0.390202193134E+02    0.72889E-04   -0.27592E-04  2924   0.347E-01    0.706E-02
DAV:   6    -0.390201545513E+02    0.64762E-04   -0.19110E-04  3066   0.275E-01    0.488E-02
DAV:   7    -0.390201132869E+02    0.41264E-04   -0.17669E-04  3338   0.213E-01    0.152E-02
DAV:   8    -0.390201129619E+02    0.32500E-06   -0.45079E-05  2632   0.113E-01    0.771E-03
DAV:   9    -0.390201135365E+02   -0.57457E-06   -0.11510E-05  2336   0.505E-02    0.837E-03
DAV:  10    -0.390201129874E+02    0.54910E-06   -0.28691E-06  1680   0.278E-02
  19 F= -.39020113E+02 E0= -.38996944E+02  d E =-.213708E-02
       N       E                     dE             d eps       ncg     rms          rms(c)
DAV:   1    -0.390178667277E+02    0.22468E-02   -0.16792E+00  2154   0.379E+00    0.856E-02
DAV:   2    -0.390205836122E+02   -0.27169E-02   -0.28398E-02  3239   0.134E+00    0.142E-01
DAV:   3    -0.390203416292E+02    0.24198E-03   -0.10307E-03  2536   0.747E-01    0.651E-02
DAV:   4    -0.390203211063E+02    0.20523E-04   -0.17050E-04  3024   0.250E-01    0.564E-02
DAV:   5    -0.390202945888E+02    0.26518E-04   -0.77362E-05  2780   0.242E-01    0.419E-02
DAV:   6    -0.390202678975E+02    0.26691E-04   -0.75337E-05  3162   0.195E-01    0.271E-02
DAV:   7    -0.390202564782E+02    0.11419E-04   -0.68244E-05  3200   0.122E-01    0.688E-03
DAV:   8    -0.390202567181E+02   -0.23990E-06   -0.12550E-05  2045   0.559E-02    0.501E-03
DAV:   9    -0.390202567176E+02    0.46566E-09   -0.34166E-06  1701   0.271E-02
  20 F= -.39020257E+02 E0= -.38997108E+02  d E =-.228081E-02
       N       E                     dE             d eps       ncg     rms          rms(c)
DAV:   1    -0.390124744388E+02    0.77823E-02   -0.55337E+00  2105   0.659E+00    0.149E-01
DAV:   2    -0.390227057365E+02   -0.10231E-01   -0.10559E-01  3211   0.249E+00    0.222E-01
DAV:   3    -0.390221790735E+02    0.52666E-03   -0.34131E-03  2654   0.126E+00    0.100E-01
DAV:   4    -0.390221237585E+02    0.55315E-04   -0.54253E-04  2965   0.491E-01    0.865E-02
DAV:   5    -0.390220587586E+02    0.65000E-04   -0.22693E-04  3131   0.326E-01    0.642E-02
DAV:   6    -0.390219978190E+02    0.60940E-04   -0.18023E-04  3082   0.268E-01    0.449E-02
DAV:   7    -0.390219646867E+02    0.33132E-04   -0.15627E-04  3410   0.230E-01    0.157E-02
DAV:   8    -0.390219648473E+02   -0.16065E-06   -0.46119E-05  2568   0.105E-01    0.732E-03
DAV:   9    -0.390219656283E+02   -0.78094E-06   -0.12176E-05  2376   0.402E-02    0.869E-03
DAV:  10    -0.390219650349E+02    0.59334E-06   -0.31034E-06  1720   0.332E-02
  21 F= -.39021965E+02 E0= -.38998837E+02  d E =-.170832E-02
       N       E                     dE             d eps       ncg     rms          rms(c)
DAV:   1    -0.389185399840E+02    0.10343E+00   -0.50008E+01  2105   0.201E+01    0.547E-01
DAV:   2    -0.390340195283E+02   -0.11548E+00   -0.11891E+00  3212   0.845E+00    0.740E-01
DAV:   3    -0.390273195810E+02    0.66999E-02   -0.32102E-02  2728   0.455E+00    0.333E-01
DAV:   4    -0.390267277792E+02    0.59180E-03   -0.64345E-03  3079   0.179E+00    0.284E-01
DAV:   5    -0.390260874443E+02    0.64033E-03   -0.25116E-03  3134   0.105E+00    0.219E-01
DAV:   6    -0.390255052479E+02    0.58220E-03   -0.16482E-03  2974   0.759E-01    0.159E-01
DAV:   7    -0.390250959423E+02    0.40931E-03   -0.15328E-03  3382   0.657E-01    0.635E-02
DAV:   8    -0.390250729713E+02    0.22971E-04   -0.55344E-04  2728   0.402E-01    0.204E-02
DAV:   9    -0.390250878717E+02   -0.14900E-04   -0.14609E-04  3254   0.147E-01    0.272E-02
DAV:  10    -0.390250809008E+02    0.69709E-05   -0.39204E-05  2568   0.112E-01    0.118E-02
DAV:  11    -0.390250824069E+02   -0.15061E-05   -0.39230E-05  2904   0.877E-02    0.116E-02
DAV:  12    -0.390250802764E+02    0.21305E-05   -0.10634E-05  2271   0.580E-02    0.229E-03
DAV:  13    -0.390250803106E+02   -0.34139E-07   -0.12998E-06  1287   0.112E-02
  22 F= -.39025080E+02 E0= -.39002010E+02  d E =-.482359E-02
       N       E                     dE             d eps       ncg     rms          rms(c)
DAV:   1    -0.390153250792E+02    0.97552E-02   -0.59499E+00  2108   0.683E+00    0.152E-01
DAV:   2    -0.390261493147E+02   -0.10824E-01   -0.11158E-01  3211   0.252E+00    0.224E-01
DAV:   3    -0.390256070946E+02    0.54222E-03   -0.34762E-03  2600   0.126E+00    0.102E-01
DAV:   4    -0.390255497172E+02    0.57377E-04   -0.55571E-04  2990   0.496E-01    0.878E-02
DAV:   5    -0.390254823191E+02    0.67398E-04   -0.23212E-04  3220   0.330E-01    0.654E-02
DAV:   6    -0.390254173576E+02    0.64961E-04   -0.19316E-04  3202   0.274E-01    0.457E-02
DAV:   7    -0.390253827001E+02    0.34658E-04   -0.15715E-04  3388   0.241E-01    0.163E-02
DAV:   8    -0.390253826583E+02    0.41764E-07   -0.48070E-05  2644   0.107E-01    0.732E-03
DAV:   9    -0.390253836417E+02   -0.98339E-06   -0.13611E-05  2400   0.388E-02    0.937E-03
DAV:  10    -0.390253829206E+02    0.72113E-06   -0.36812E-06  1792   0.361E-02
  23 F= -.39025383E+02 E0= -.39002331E+02  d E =-.512620E-02
       N       E                     dE             d eps       ncg     rms          rms(c)
DAV:   1    -0.390239806361E+02    0.14030E-02   -0.13617E+00  2124   0.343E+00    0.708E-02
DAV:   2    -0.390262655499E+02   -0.22849E-02   -0.23588E-02  3202   0.117E+00    0.107E-01
DAV:   3    -0.390261492826E+02    0.11627E-03   -0.80885E-04  2495   0.587E-01    0.506E-02
DAV:   4    -0.390261355900E+02    0.13693E-04   -0.12342E-04  2861   0.232E-01    0.441E-02
DAV:   5    -0.390261182568E+02    0.17333E-04   -0.57502E-05  3132   0.183E-01    0.328E-02
DAV:   6    -0.390261008230E+02    0.17434E-04   -0.56783E-05  3290   0.163E-01    0.219E-02
DAV:   7    -0.390260929832E+02    0.78398E-05   -0.41719E-05  3396   0.123E-01    0.657E-03
DAV:   8    -0.390260931937E+02   -0.21042E-06   -0.10531E-05  2078   0.458E-02    0.400E-03
DAV:   9    -0.390260931545E+02    0.39145E-07   -0.17781E-06  1319   0.129E-02
  24 F= -.39026093E+02 E0= -.39003041E+02  d E =-.710234E-03
       N       E                     dE             d eps       ncg     rms          rms(c)
DAV:   1    -0.390043242186E+02    0.21769E-01   -0.12250E+01  2121   0.103E+01    0.268E-01
DAV:   2    -0.390303136361E+02   -0.25989E-01   -0.27019E-01  3198   0.429E+00    0.405E-01
DAV:   3    -0.390283309800E+02    0.19827E-02   -0.95062E-03  2614   0.242E+00    0.178E-01
DAV:   4    -0.390281638697E+02    0.16711E-03   -0.17933E-03  2915   0.826E-01    0.154E-01
DAV:   5    -0.390279888607E+02    0.17501E-03   -0.71626E-04  2915   0.546E-01    0.119E-01
DAV:   6    -0.390278041573E+02    0.18470E-03   -0.46001E-04  3000   0.417E-01    0.844E-02
DAV:   7    -0.390276727217E+02    0.13144E-03   -0.53003E-04  3382   0.325E-01    0.291E-02
DAV:   8    -0.390276703498E+02    0.23719E-05   -0.14099E-04  2693   0.202E-01    0.126E-02
DAV:   9    -0.390276731634E+02   -0.28137E-05   -0.34741E-05  2768   0.777E-02    0.148E-02
DAV:  10    -0.390276712949E+02    0.18685E-05   -0.94571E-06  2152   0.523E-02    0.760E-03
DAV:  11    -0.390276712053E+02    0.89582E-07   -0.10953E-05  2439   0.509E-02    0.528E-03
DAV:  12    -0.390276706771E+02    0.52821E-06   -0.19598E-06  1387   0.242E-02
  25 F= -.39027671E+02 E0= -.39004626E+02  d E =-.228776E-02
       N       E                     dE             d eps       ncg     rms          rms(c)
DAV:   1    -0.389200215958E+02    0.10765E+00   -0.49350E+01  2153   0.211E+01    0.551E-01
DAV:   2    -0.390378152108E+02   -0.11779E+00   -0.12105E+00  3212   0.858E+00    0.754E-01
DAV:   3    -0.390305962394E+02    0.72190E-02   -0.30861E-02  2796   0.478E+00    0.348E-01
DAV:   4    -0.390299436978E+02    0.65254E-03   -0.68002E-03  2994   0.171E+00    0.303E-01
DAV:   5    -0.390293131786E+02    0.63052E-03   -0.26521E-03  2923   0.109E+00    0.244E-01
DAV:   6    -0.390284984520E+02    0.81473E-03   -0.20669E-03  3025   0.810E-01    0.167E-01
DAV:   7    -0.390280060261E+02    0.49243E-03   -0.18807E-03  3390   0.615E-01    0.577E-02
DAV:   8    -0.390279902745E+02    0.15752E-04   -0.50240E-04  2735   0.400E-01    0.224E-02
DAV:   9    -0.390280026781E+02   -0.12404E-04   -0.12705E-04  3295   0.158E-01    0.268E-02
DAV:  10    -0.390279955259E+02    0.71521E-05   -0.70411E-05  2630   0.157E-01    0.653E-03
DAV:  11    -0.390279965561E+02   -0.10302E-05   -0.12867E-05  2568   0.306E-02    0.729E-03
DAV:  12    -0.390279957671E+02    0.78895E-06   -0.58261E-06  1804   0.429E-02
  26 F= -.39027996E+02 E0= -.39004955E+02  d E =-.261285E-02
       N       E                     dE             d eps       ncg     rms          rms(c)
DAV:   1    -0.390283579861E+02   -0.36143E-03   -0.41063E-01  2178   0.194E+00    0.340E-02
DAV:   2    -0.390289180523E+02   -0.56007E-03   -0.57449E-03  3160   0.517E-01    0.418E-02
DAV:   3    -0.390289064116E+02    0.11641E-04   -0.14065E-04  2528   0.253E-01    0.266E-02
DAV:   4    -0.390289038080E+02    0.26036E-05   -0.24890E-05  2950   0.157E-01    0.233E-02
DAV:   5    -0.390288988313E+02    0.49768E-05   -0.17935E-05  2755   0.134E-01    0.164E-02
DAV:   6    -0.390288940159E+02    0.48153E-05   -0.23215E-05  3498   0.964E-02    0.710E-03
DAV:   7    -0.390288934474E+02    0.56851E-06   -0.55842E-06  1911   0.475E-02
  27 F= -.39028893E+02 E0= -.39005829E+02  d E =-.897680E-03
       N       E                     dE             d eps       ncg     rms          rms(c)
DAV:   1    -0.390290704405E+02   -0.17642E-03   -0.16221E-01  2180   0.122E+00    0.215E-02
DAV:   2    -0.390292865109E+02   -0.21607E-03   -0.22269E-03  3172   0.312E-01    0.220E-02
DAV:   3    -0.390292839549E+02    0.25560E-05   -0.42486E-05  2591   0.118E-01    0.149E-02
DAV:   4    -0.390292823427E+02    0.16122E-05   -0.68699E-06  1911   0.705E-02    0.121E-02
DAV:   5    -0.390292815210E+02    0.82175E-06   -0.87874E-06  2533   0.730E-02
  28 F= -.39029282E+02 E0= -.39006214E+02  d E =-.128575E-02
       N       E                     dE             d eps       ncg     rms          rms(c)
DAV:   1    -0.390287227363E+02    0.55961E-03   -0.64833E-01  2170   0.244E+00    0.495E-02
DAV:   2    -0.390297128673E+02   -0.99013E-03   -0.10292E-02  3186   0.761E-01    0.720E-02
DAV:   3    -0.390296643753E+02    0.48492E-04   -0.31244E-04  2436   0.410E-01    0.352E-02
DAV:   4    -0.390296622629E+02    0.21124E-05   -0.54287E-05  3131   0.190E-01    0.343E-02
DAV:   5    -0.390296493139E+02    0.12949E-04   -0.35676E-05  2847   0.184E-01    0.208E-02
DAV:   6    -0.390296440493E+02    0.52645E-05   -0.43790E-05  3286   0.118E-01    0.111E-02
DAV:   7    -0.390296424014E+02    0.16479E-05   -0.11399E-05  1984   0.846E-02    0.322E-03
DAV:   8    -0.390296424936E+02   -0.92230E-07   -0.51097E-06  1768   0.279E-02
  29 F= -.39029642E+02 E0= -.39006546E+02  d E =-.164673E-02
       N       E                     dE             d eps       ncg     rms          rms(c)
DAV:   1    -0.390295809805E+02    0.61421E-04   -0.24004E-01  2105   0.141E+00    0.251E-02
DAV:   2    -0.390300052127E+02   -0.42423E-03   -0.43095E-03  3152   0.448E-01    0.285E-02
DAV:   3    -0.390299983095E+02    0.69033E-05   -0.75296E-05  2640   0.164E-01    0.171E-02
DAV:   4    -0.390299962538E+02    0.20556E-05   -0.11438E-05  2558   0.913E-02    0.153E-02
DAV:   5    -0.390299949616E+02    0.12923E-05   -0.75569E-06  1873   0.106E-01    0.118E-02
DAV:   6    -0.390299914874E+02    0.34742E-05   -0.19160E-05  3286   0.922E-02    0.637E-03
DAV:   7    -0.390299908897E+02    0.59765E-06   -0.35463E-06  1632   0.411E-02
  30 F= -.39029991E+02 E0= -.39006906E+02  d E =-.348396E-03
