PROCAR lm decomposed
# of k-points:   10         # of bands:  105         # of ions:   16

 k-point     1 :    0.00000000 0.00000000 0.00000000     weight = 0.06250000

band     1 # energy   -8.62577539 # occ.  2.00000000
 
ion      s     py     pz     px    dxy    dyz    dz2    dxz  x2-y2    tot
    1  0.017  0.000  0.001  0.000  0.000  0.000  0.000  0.000  0.000  0.019
    2  0.023  0.000  0.002  0.000  0.000  0.000  0.000  0.000  0.000  0.026
    3  0.017  0.000  0.001  0.000  0.000  0.000  0.000  0.000  0.000  0.019
    4  0.023  0.000  0.002  0.000  0.000  0.000  0.000  0.000  0.000  0.026
    5  0.051  0.000  0.000  0.000  0.000  0.000  0.000  0.000  0.000  0.051
    6  0.068  0.000  0.000  0.000  0.000  0.000  0.001  0.000  0.000  0.070
    7  0.051  0.000  0.000  0.000  0.000  0.000  0.000  0.000  0.000  0.051
    8  0.068  0.000  0.000  0.000  0.000  0.000  0.001  0.000  0.000  0.070
    9  0.042  0.000  0.000  0.000  0.000  0.000  0.000  0.000  0.000  0.043
   10  0.050  0.000  0.001  0.000  0.000  0.000  0.001  0.000  0.000  0.052
   11  0.042  0.000  0.000  0.000  0.000  0.000  0.000  0.000  0.000  0.043
   12  0.050  0.000  0.001  0.000  0.000  0.000  0.001  0.000  0.000  0.052
   13  0.012  0.000  0.001  0.000  0.000  0.000  0.000  0.000  0.000  0.013
   14  0.009  0.000  0.001  0.000  0.000  0.000  0.000  0.000  0.000  0.010
   15  0.012  0.000  0.001  0.000  0.000  0.000  0.000  0.000  0.000  0.013
   16  0.009  0.000  0.001  0.000  0.000  0.000  0.000  0.000  0.000  0.010
tot    0.547  0.000  0.014  0.000  0.001  0.000  0.004  0.000  0.000  0.566
 
band     2 # energy   -7.62525996 # occ.  2.00000000
 
ion      s     py     pz     px    dxy    dyz    dz2    dxz  x2-y2    tot
    1  0.033  0.000  0.001  0.000  0.000  0.000  0.001  0.000  0.000  0.035
    2  0.038  0.000  0.001  0.000  0.000  0.000  0.010  0.000  0.000  0.050
    3  0.033  0.000  0.001  0.000  0.000  0.000  0.001  0.000  0.000  0.035
    4  0.038  0.000  0.001  0.000  0.000  0.000  0.010  0.000  0.000  0.050
    5  0.017  0.000  0.003  0.000  0.000  0.000  0.001  0.000  0.000  0.021
    6  0.015  0.000  0.005  0.000  0.000  0.000  0.009  0.000  0.000  0.030
    7  0.017  0.000  0.003  0.000  0.000  0.000  0.001  0.000  0.000  0.021
    8  0.015  0.000  0.005  0.000  0.000  0.000  0.009  0.000  0.000  0.030
    9  0.032  0.000  0.002  0.000  0.000  0.000  0.002  0.000  0.000  0.036
   10  0.030  0.000  0.003  0.000  0.000  0.000  0.018  0.001  0.000  0.051
   11  0.032  0.000  0.002  0.000  0.000  0.000  0.002  0.000  0.000  0.036
   12  0.030  0.000  0.003  0.000  0.000  0.000  0.018  0.001  0.000  0.051
   13  0.036  0.000  0.001  0.000  0.000  0.000  0.000  0.000  0.000  0.038
   14  0.028  0.000  0.001  0.000  0.000  0.000  0.004  0.000  0.000  0.033
   15  0.036  0.000  0.001  0.000  0.000  0.000  0.000  0.000  0.000  0.038
   16  0.028  0.000  0.001  0.000  0.000  0.000  0.004  0.000  0.000  0.033
tot    0.457  0.000  0.038  0.000  0.001  0.001  0.091  0.003  0.000  0.590
 
band     3 # energy   -7.18604564 # occ.  2.00000000
 
ion      s     py     pz     px    dxy    dyz    dz2    dxz  x2-y2    tot
    1  0.010  0.000  0.000  0.000  0.003  0.000  0.003  0.000  0.001  0.017
    2  0.022  0.000  0.000  0.000  0.039  0.000  0.094  0.000  0.013  0.170
    3  0.010  0.000  0.000  0.000  0.003  0.000  0.003  0.000  0.001  0.017
    4  0.022  0.000  0.000  0.000  0.039  0.000  0.094  0.000  0.013  0.170
    5  0.005  0.000  0.000  0.000  0.003  0.000  0.002  0.000  0.001  0.011
    6  0.012  0.000  0.000  0.000  0.053  0.000  0.126  0.000  0.018  0.210
    7  0.005  0.000  0.000  0.000  0.003  0.000  0.002  0.000  0.001  0.011
    8  0.012  0.000  0.000  0.000  0.053  0.000  0.126  0.000  0.018  0.210
    9  0.001  0.000  0.001  0.000  0.001  0.000  0.001  0.000  0.000  0.003
   10  0.000  0.000  0.000  0.000  0.008  0.000  0.000  0.001  0.003  0.012
   11  0.001  0.000  0.001  0.000  0.001  0.000  0.001  0.000  0.000  0.003
   12  0.000  0.000  0.000  0.000  0.008  0.000  0.000  0.001  0.003  0.012
   13  0.003  0.000  0.000  0.000  0.000  0.000  0.000  0.000  0.000  0.003
   14  0.002  0.000  0.000  0.000  0.000  0.000  0.002  0.000  0.000  0.004
   15  0.003  0.000  0.000  0.000  0.000  0.000  0.000  0.000  0.000  0.003
   16  0.002  0.000  0.000  0.000  0.000  0.000  0.002  0.000  0.000  0.004
tot    0.109  0.000  0.004  0.000  0.213  0.001  0.459  0.004  0.071  0.862
 
band     4 # energy   -7.02407690 # occ.  2.00000000
 
ion      s     py     pz     px    dxy    dyz    dz2    dxz  x2-y2    tot
    1  0.000  0.000  0.000  0.000  0.000  0.000  0.000  0.000  0.000  0.000
    2  0.005  0.000  0.003  0.000  0.000  0.000  0.032  0.000  0.000  0.040
    3  0.000  0.000  0.000  0.000  0.000  0.000  0.000  0.000  0.000  0.000
    4  0.005  0.000  0.003  0.000  0.000  0.000  0.032  0.000  0.000  0.040
    5  0.017  0.000  0.000  0.000  0.010  0.001  0.000  0.002  0.003  0.033
    6  0.000  0.000  0.000  0.000  0.044  0.067  0.000  0.022  0.131  0.265
    7  0.017  0.000  0.000  0.000  0.010  0.001  0.000  0.002  0.003  0.033
    8  0.000  0.000  0.000  0.000  0.044  0.067  0.000  0.022  0.131  0.265
    9  0.011  0.000  0.001  0.000  0.003  0.000  0.001  0.000  0.001  0.018
   10  0.000  0.000  0.000  0.000  0.014  0.010  0.000  0.003  0.043  0.072
   11  0.011  0.000  0.001  0.000  0.003  0.000  0.001  0.000  0.001  0.018
   12  0.000  0.000  0.000  0.000  0.014  0.010  0.000  0.003  0.043  0.072
   13  0.000  0.000  0.000  0.000  0.000  0.000  0.000  0.000  0.000  0.001
   14  0.000  0.000  0.000  0.000  0.000  0.000  0.002  0.000  0.000  0.003
   15  0.000  0.000  0.000  0.000  0.000  0.000  0.000  0.000  0.000  0.001
   16  0.000  0.000  0.000  0.000  0.000  0.000  0.002  0.000  0.000  0.003
tot    0.067  0.001  0.008  0.000  0.142  0.159  0.071  0.058  0.358  0.863
 
band     5 # energy   -6.98133567 # occ.  2.00000000
 
ion      s     py     pz     px    dxy    dyz    dz2    dxz  x2-y2    tot
    1  0.000  0.001  0.000  0.000  0.000  0.003  0.000  0.001  0.001  0.005
    2  0.001  0.000  0.000  0.000  0.001  0.004  0.000  0.012  0.000  0.018
    3  0.000  0.001  0.000  0.000  0.000  0.003  0.000  0.001  0.001  0.005
    4  0.001  0.000  0.000  0.000  0.001  0.004  0.000  0.012  0.000  0.018
    5  0.009  0.000  0.000  0.000  0.006  0.001  0.000  0.003  0.002  0.022
    6  0.000  0.000  0.000  0.000  0.024  0.085  0.000  0.028  0.073  0.211
    7  0.009  0.000  0.000  0.000  0.006  0.001  0.000  0.003  0.002  0.022
    8  0.000  0.000  0.000  0.000  0.024  0.085  0.000  0.028  0.073  0.211
    9  0.007  0.000  0.000  0.000  0.004  0.001  0.000  0.004  0.001  0.018
   10  0.000  0.000  0.000  0.000  0.018  0.053  0.000  0.018  0.054  0.142
   11  0.007  0.000  0.000  0.000  0.004  0.001  0.000  0.004  0.001  0.018
   12  0.000  0.000  0.000  0.000  0.018  0.053  0.000  0.018  0.054  0.142
   13  0.000  0.000  0.000  0.000  0.000  0.001  0.000  0.000  0.000  0.003
   14  0.000  0.000  0.000  0.000  0.000  0.001  0.000  0.002  0.000  0.004
   15  0.000  0.000  0.000  0.000  0.000  0.001  0.000  0.000  0.000  0.003
   16  0.000  0.000  0.000  0.000  0.000  0.001  0.000  0.002  0.000  0.004
tot    0.035  0.004  0.001  0.003  0.107  0.297  0.001  0.137  0.262  0.845
 
band     6 # energy   -6.87179475 # occ.  2.00000000
 
ion      s     py     pz     px    dxy    dyz    dz2    dxz  x2-y2    tot
    1  0.000  0.000  0.000  0.000  0.001  0.000  0.001  0.001  0.000  0.003
    2  0.005  0.000  0.000  0.000  0.018  0.003  0.002  0.008  0.006  0.041
    3  0.000  0.000  0.000  0.000  0.001  0.000  0.001  0.001  0.000  0.003
    4  0.005  0.000  0.000  0.000  0.018  0.003  0.002  0.008  0.006  0.041
    5  0.008  0.000  0.000  0.000  0.003  0.000  0.002  0.000  0.001  0.014
    6  0.001  0.000  0.000  0.000  0.053  0.002  0.017  0.005  0.018  0.096
    7  0.008  0.000  0.000  0.000  0.003  0.000  0.002  0.000  0.001  0.014
    8  0.001  0.000  0.000  0.000  0.053  0.002  0.017  0.005  0.018  0.096
    9  0.004  0.000  0.001  0.000  0.001  0.000  0.002  0.000  0.000  0.009
   10  0.002  0.000  0.000  0.000  0.016  0.000  0.117  0.001  0.005  0.142
   11  0.004  0.000  0.001  0.000  0.001  0.000  0.002  0.000  0.000  0.009
   12  0.002  0.000  0.000  0.000  0.016  0.000  0.117  0.001  0.005  0.142
   13  0.009  0.000  0.000  0.000  0.002  0.000  0.003  0.000  0.001  0.015
   14  0.027  0.000  0.000  0.000  0.027  0.000  0.042  0.000  0.009  0.106
   15  0.009  0.000  0.000  0.000  0.002  0.000  0.003  0.000  0.001  0.015
   16  0.027  0.000  0.000  0.000  0.027  0.000  0.042  0.000  0.009  0.106
tot    0.113  0.000  0.003  0.001  0.239  0.011  0.372  0.032  0.080  0.851
 
band     7 # energy   -6.79785907 # occ.  2.00000000
 
ion      s     py     pz     px    dxy    dyz    dz2    dxz  x2-y2    tot
    1  0.016  0.000  0.000  0.000  0.014  0.001  0.003  0.002  0.005  0.041
    2  0.000  0.001  0.000  0.000  0.062  0.036  0.000  0.012  0.187  0.298
    3  0.016  0.000  0.000  0.000  0.014  0.001  0.003  0.002  0.005  0.041
    4  0.000  0.001  0.000  0.000  0.062  0.036  0.000  0.012  0.187  0.298
    5  0.000  0.000  0.000  0.000  0.000  0.001  0.000  0.000  0.000  0.001
    6  0.008  0.000  0.002  0.000  0.000  0.000  0.075  0.000  0.000  0.086
    7  0.000  0.000  0.000  0.000  0.000  0.001  0.000  0.000  0.000  0.001
    8  0.008  0.000  0.002  0.000  0.000  0.000  0.075  0.000  0.000  0.086
    9  0.000  0.000  0.000  0.000  0.000  0.002  0.000  0.001  0.001  0.004
   10  0.001  0.000  0.000  0.000  0.002  0.001  0.000  0.004  0.001  0.008
   11  0.000  0.000  0.000  0.000  0.000  0.002  0.000  0.001  0.001  0.004
   12  0.001  0.000  0.000  0.000  0.002  0.001  0.000  0.004  0.001  0.008
   13  0.000  0.000  0.000  0.000  0.000  0.000  0.000  0.000  0.000  0.000
   14  0.000  0.000  0.000  0.000  0.000  0.000  0.000  0.000  0.000  0.001
   15  0.000  0.000  0.000  0.000  0.000  0.000  0.000  0.000  0.000  0.000
   16  0.000  0.000  0.000  0.000  0.000  0.000  0.000  0.000  0.000  0.001
tot    0.051  0.003  0.004  0.001  0.158  0.081  0.156  0.037  0.387  0.878
 
band     8 # energy   -6.78526375 # occ.  2.00000000
 
ion      s     py     pz     px    dxy    dyz    dz2    dxz  x2-y2    tot
    1  0.000  0.000  0.000  0.000  0.000  0.000  0.001  0.001  0.000  0.003
    2  0.005  0.000  0.000  0.000  0.003  0.005  0.000  0.016  0.001  0.031
    3  0.000  0.000  0.000  0.000  0.000  0.000  0.001  0.001  0.000  0.003
    4  0.005  0.000  0.000  0.000  0.003  0.005  0.000  0.016  0.001  0.031
    5  0.008  0.000  0.000  0.000  0.004  0.000  0.000  0.000  0.001  0.015
    6  0.009  0.000  0.000  0.000  0.111  0.000  0.002  0.001  0.037  0.160
    7  0.008  0.000  0.000  0.000  0.004  0.000  0.000  0.000  0.001  0.015
    8  0.009  0.000  0.000  0.000  0.111  0.000  0.002  0.001  0.037  0.160
    9  0.000  0.000  0.000  0.000  0.005  0.001  0.001  0.002  0.002  0.011
   10  0.016  0.000  0.001  0.000  0.105  0.003  0.015  0.008  0.035  0.182
   11  0.000  0.000  0.000  0.000  0.005  0.001  0.001  0.002  0.002  0.011
   12  0.016  0.000  0.001  0.000  0.105  0.003  0.015  0.008  0.035  0.182
   13  0.004  0.000  0.000  0.000  0.000  0.000  0.000  0.000  0.000  0.004
   14  0.002  0.000  0.000  0.000  0.003  0.000  0.024  0.001  0.001  0.031
   15  0.004  0.000  0.000  0.000  0.000  0.000  0.000  0.000  0.000  0.004
   16  0.002  0.000  0.000  0.000  0.003  0.000  0.024  0.001  0.001  0.031
tot    0.089  0.001  0.004  0.002  0.462  0.019  0.088  0.057  0.154  0.876
 
band     9 # energy   -6.66293575 # occ.  2.00000000
 
ion      s     py     pz     px    dxy    dyz    dz2    dxz  x2-y2    tot
    1  0.016  0.000  0.000  0.000  0.002  0.001  0.003  0.002  0.001  0.025
    2  0.000  0.000  0.001  0.000  0.071  0.004  0.017  0.012  0.024  0.129
    3  0.016  0.000  0.000  0.000  0.002  0.001  0.003  0.002  0.001  0.025
    4  0.000  0.000  0.001  0.000  0.071  0.004  0.017  0.012  0.024  0.129
    5  0.004  0.000  0.000  0.000  0.000  0.004  0.003  0.011  0.000  0.023
    6  0.001  0.000  0.000  0.000  0.012  0.029  0.006  0.087  0.004  0.140
    7  0.004  0.000  0.000  0.000  0.000  0.004  0.003  0.011  0.000  0.023
    8  0.001  0.000  0.000  0.000  0.012  0.029  0.006  0.087  0.004  0.140
    9  0.003  0.000  0.001  0.000  0.003  0.001  0.000  0.003  0.001  0.012
   10  0.002  0.000  0.000  0.000  0.035  0.007  0.000  0.022  0.012  0.079
   11  0.003  0.000  0.001  0.000  0.003  0.001  0.000  0.003  0.001  0.012
   12  0.002  0.000  0.000  0.000  0.035  0.007  0.000  0.022  0.012  0.079
   13  0.002  0.000  0.000  0.000  0.000  0.000  0.001  0.001  0.000  0.004
   14  0.002  0.000  0.000  0.000  0.000  0.001  0.002  0.003  0.000  0.009
   15  0.002  0.000  0.000  0.000  0.000  0.000  0.001  0.001  0.000  0.004
   16  0.002  0.000  0.000  0.000  0.000  0.001  0.002  0.003  0.000  0.009
tot    0.060  0.001  0.004  0.003  0.248  0.094  0.064  0.283  0.083  0.840
 
band    10 # energy   -6.53200905 # occ.  2.00000000
 
ion      s     py     pz     px    dxy    dyz    dz2    dxz  x2-y2    tot
    1  0.000  0.000  0.000  0.000  0.000  0.001  0.000  0.000  0.000  0.001
    2  0.002  0.000  0.001  0.000  0.000  0.002  0.018  0.006  0.000  0.030
    3  0.000  0.000  0.000  0.000  0.000  0.001  0.000  0.000  0.000  0.001
    4  0.002  0.000  0.001  0.000  0.000  0.002  0.018  0.006  0.000  0.030
    5  0.000  0.000  0.001  0.000  0.001  0.001  0.008  0.002  0.000  0.013
    6  0.000  0.001  0.000  0.000  0.004  0.052  0.000  0.017  0.013  0.087
    7  0.000  0.000  0.001  0.000  0.001  0.001  0.008  0.002  0.000  0.013
    8  0.000  0.001  0.000  0.000  0.004  0.052  0.000  0.017  0.013  0.087
    9  0.007  0.000  0.001  0.000  0.011  0.001  0.007  0.002  0.004  0.033
   10  0.000  0.000  0.000  0.000  0.050  0.050  0.000  0.017  0.148  0.264
   11  0.007  0.000  0.001  0.000  0.011  0.001  0.007  0.002  0.004  0.033
   12  0.000  0.000  0.000  0.000  0.049  0.050  0.000  0.017  0.149  0.264
   13  0.000  0.000  0.000  0.000  0.000  0.000  0.000  0.000  0.000  0.001
   14  0.002  0.000  0.001  0.000  0.000  0.000  0.012  0.000  0.000  0.015
   15  0.000  0.000  0.000  0.000  0.000  0.000  0.000  0.000  0.000  0.001
   16  0.002  0.000  0.001  0.000  0.000  0.000  0.012  0.000  0.000  0.015
tot    0.023  0.002  0.007  0.001  0.132  0.212  0.091  0.089  0.330  0.887
 
band    11 # energy   -6.51969968 # occ.  2.00000000
 
ion      s     py     pz     px    dxy    dyz    dz2    dxz  x2-y2    tot
    1  0.001  0.000  0.000  0.000  0.003  0.000  0.000  0.000  0.001  0.005
    2  0.006  0.000  0.000  0.000  0.070  0.000  0.005  0.000  0.023  0.105
    3  0.001  0.000  0.000  0.000  0.003  0.000  0.000  0.000  0.001  0.005
    4  0.006  0.000  0.000  0.000  0.070  0.000  0.005  0.000  0.023  0.105
    5  0.001  0.000  0.000  0.000  0.001  0.000  0.000  0.000  0.000  0.002
    6  0.000  0.000  0.001  0.000  0.021  0.002  0.011  0.006  0.007  0.048
    7  0.001  0.000  0.000  0.000  0.001  0.000  0.000  0.000  0.000  0.002
    8  0.000  0.000  0.001  0.000  0.021  0.002  0.011  0.006  0.007  0.048
    9  0.009  0.000  0.000  0.000  0.004  0.000  0.004  0.000  0.001  0.018
   10  0.000  0.000  0.001  0.000  0.098  0.001  0.001  0.004  0.033  0.139
   11  0.009  0.000  0.000  0.000  0.004  0.000  0.004  0.000  0.001  0.018
   12  0.000  0.000  0.001  0.000  0.098  0.001  0.001  0.004  0.033  0.139
   13  0.001  0.000  0.001  0.000  0.002  0.000  0.004  0.000  0.001  0.010
   14  0.021  0.000  0.000  0.000  0.047  0.001  0.026  0.002  0.016  0.112
   15  0.001  0.000  0.001  0.000  0.002  0.000  0.004  0.000  0.001  0.010
   16  0.021  0.000  0.000  0.000  0.047  0.001  0.026  0.002  0.016  0.112
tot    0.077  0.000  0.008  0.001  0.492  0.008  0.102  0.025  0.164  0.878
 
band    12 # energy   -6.51005178 # occ.  2.00000000
 
ion      s     py     pz     px    dxy    dyz    dz2    dxz  x2-y2    tot
    1  0.005  0.000  0.000  0.000  0.004  0.001  0.000  0.003  0.001  0.015
    2  0.000  0.002  0.000  0.001  0.015  0.168  0.000  0.056  0.044  0.285
    3  0.005  0.000  0.000  0.000  0.004  0.001  0.000  0.003  0.001  0.015
    4  0.000  0.002  0.000  0.001  0.015  0.168  0.000  0.056  0.044  0.285
    5  0.000  0.001  0.000  0.000  0.001  0.010  0.000  0.003  0.002  0.017
    6  0.006  0.000  0.001  0.001  0.003  0.020  0.018  0.059  0.001  0.108
    7  0.000  0.001  0.000  0.000  0.001  0.010  0.000  0.003  0.002  0.017
    8  0.006  0.000  0.001  0.001  0.003  0.020  0.018  0.059  0.001  0.108
    9  0.000  0.000  0.000  0.000  0.000  0.003  0.000  0.001  0.000  0.004
   10  0.000  0.000  0.000  0.000  0.000  0.001  0.003  0.002  0.000  0.005
   11  0.000  0.000  0.000  0.000  0.000  0.003  0.000  0.001  0.000  0.004
   12  0.000  0.000  0.000  0.000  0.000  0.001  0.003  0.002  0.000  0.005
   13  0.000  0.000  0.000  0.000  0.000  0.000  0.000  0.000  0.000  0.000
   14  0.000  0.000  0.000  0.000  0.000  0.001  0.000  0.000  0.000  0.002
   15  0.000  0.000  0.000  0.000  0.000  0.000  0.000  0.000  0.000  0.000
   16  0.000  0.000  0.000  0.000  0.000  0.001  0.000  0.000  0.000  0.002
tot    0.024  0.006  0.002  0.003  0.044  0.407  0.040  0.250  0.097  0.873
 
band    13 # energy   -6.36077870 # occ.  2.00000000
 
ion      s     py     pz     px    dxy    dyz    dz2    dxz  x2-y2    tot
    1  0.000  0.000  0.000  0.000  0.000  0.000  0.000  0.000  0.000  0.001
    2  0.000  0.000  0.000  0.000  0.001  0.000  0.000  0.000  0.003  0.004
    3  0.000  0.000  0.000  0.000  0.000  0.000  0.000  0.000  0.000  0.001
    4  0.000  0.000  0.000  0.000  0.001  0.000  0.000  0.000  0.003  0.004
    5  0.000  0.000  0.000  0.000  0.001  0.000  0.000  0.000  0.003  0.005
    6  0.001  0.000  0.000  0.000  0.005  0.001  0.000  0.004  0.002  0.014
    7  0.000  0.000  0.000  0.000  0.001  0.000  0.000  0.000  0.003  0.005
    8  0.001  0.000  0.000  0.000  0.005  0.001  0.000  0.004  0.002  0.014
    9  0.000  0.000  0.000  0.000  0.000  0.002  0.000  0.001  0.000  0.003
   10  0.003  0.000  0.000  0.000  0.000  0.004  0.044  0.012  0.000  0.064
   11  0.000  0.000  0.000  0.000  0.000  0.002  0.000  0.001  0.000  0.003
   12  0.003  0.000  0.000  0.000  0.000  0.004  0.044  0.012  0.000  0.064
   13  0.019  0.000  0.000  0.000  0.017  0.000  0.002  0.001  0.006  0.046
   14  0.000  0.000  0.000  0.000  0.071  0.009  0.000  0.003  0.213  0.296
   15  0.019  0.000  0.000  0.000  0.017  0.000  0.002  0.001  0.006  0.046
   16  0.000  0.000  0.000  0.000  0.071  0.009  0.000  0.003  0.213  0.296
tot    0.048  0.001  0.001  0.001  0.192  0.035  0.093  0.042  0.453  0.866
 
band    14 # energy   -6.23953461 # occ.  2.00000000
 
ion      s     py     pz     px    dxy    dyz    dz2    dxz  x2-y2    tot
    1  0.008  0.000  0.000  0.000  0.002  0.000  0.005  0.000  0.001  0.015
    2  0.001  0.000  0.000  0.000  0.054  0.000  0.001  0.000  0.018  0.075
    3  0.008  0.000  0.000  0.000  0.002  0.000  0.005  0.000  0.001  0.015
    4  0.001  0.000  0.000  0.000  0.054  0.000  0.001  0.000  0.018  0.075
    5  0.001  0.000  0.000  0.000  0.000  0.001  0.007  0.002  0.000  0.011
    6  0.003  0.000  0.000  0.001  0.002  0.003  0.006  0.010  0.001  0.026
    7  0.001  0.000  0.000  0.000  0.000  0.001  0.007  0.002  0.000  0.011
    8  0.003  0.000  0.000  0.001  0.002  0.003  0.006  0.010  0.001  0.026
    9  0.002  0.000  0.000  0.000  0.000  0.002  0.003  0.005  0.000  0.013
   10  0.000  0.000  0.000  0.000  0.002  0.018  0.045  0.053  0.001  0.118
   11  0.002  0.000  0.000  0.000  0.000  0.002  0.003  0.005  0.000  0.013
   12  0.000  0.000  0.000  0.000  0.002  0.018  0.045  0.053  0.001  0.118
   13  0.008  0.000  0.000  0.001  0.004  0.001  0.001  0.003  0.001  0.019
   14  0.001  0.000  0.000  0.000  0.107  0.003  0.001  0.010  0.036  0.157
   15  0.008  0.000  0.000  0.001  0.004  0.001  0.001  0.003  0.001  0.019
   16  0.001  0.000  0.000  0.000  0.107  0.003  0.001  0.010  0.036  0.157
tot    0.046  0.002  0.001  0.005  0.340  0.055  0.142  0.164  0.113  0.868
 
band    15 # energy   -6.09986746 # occ.  2.00000000
 
ion      s     py     pz     px    dxy    dyz    dz2    dxz  x2-y2    tot
    1  0.000  0.000  0.000  0.000  0.001  0.003  0.000  0.001  0.003  0.009
    2  0.002  0.000  0.000  0.000  0.004  0.008  0.000  0.024  0.001  0.040
    3  0.000  0.000  0.000  0.000  0.001  0.003  0.000  0.001  0.003  0.009
    4  0.002  0.000  0.000  0.000  0.004  0.008  0.000  0.024  0.001  0.040
    5  0.001  0.000  0.001  0.000  0.002  0.000  0.004  0.000  0.001  0.009
    6  0.000  0.002  0.000  0.001  0.011  0.045  0.000  0.015  0.032  0.104
    7  0.001  0.000  0.001  0.000  0.002  0.000  0.004  0.000  0.001  0.009
    8  0.000  0.002  0.000  0.001  0.011  0.045  0.000  0.015  0.032  0.104
    9  0.001  0.000  0.000  0.000  0.001  0.001  0.000  0.003  0.000  0.007
   10  0.000  0.001  0.000  0.000  0.005  0.156  0.000  0.052  0.016  0.230
   11  0.001  0.000  0.000  0.000  0.001  0.001  0.000  0.003  0.000  0.007
   12  0.000  0.001  0.000  0.000  0.005  0.156  0.000  0.052  0.016  0.230
   13  0.000  0.001  0.000  0.000  0.001  0.003  0.000  0.001  0.003  0.009
   14  0.003  0.000  0.001  0.000  0.002  0.004  0.010  0.012  0.001  0.032
   15  0.000  0.001  0.000  0.000  0.001  0.003  0.000  0.001  0.003  0.009
   16  0.003  0.000  0.001  0.000  0.002  0.004  0.010  0.012  0.001  0.032
tot    0.014  0.008  0.005  0.005  0.054  0.439  0.029  0.214  0.112  0.880
 
band    16 # energy   -6.05333603 # occ.  2.00000000
 
ion      s     py     pz     px    dxy    dyz    dz2    dxz  x2-y2    tot
    1  0.009  0.000  0.000  0.000  0.001  0.001  0.009  0.003  0.000  0.024
    2  0.006  0.000  0.000  0.000  0.016  0.006  0.015  0.018  0.005  0.067
    3  0.009  0.000  0.000  0.000  0.001  0.001  0.009  0.003  0.000  0.024
    4  0.006  0.000  0.000  0.000  0.016  0.006  0.015  0.018  0.005  0.067
    5  0.001  0.000  0.002  0.000  0.000  0.001  0.004  0.004  0.000  0.012
    6  0.007  0.000  0.001  0.000  0.006  0.009  0.019  0.028  0.002  0.071
    7  0.001  0.000  0.002  0.000  0.000  0.001  0.004  0.004  0.000  0.012
    8  0.007  0.000  0.001  0.000  0.006  0.009  0.019  0.028  0.002  0.071
    9  0.001  0.000  0.002  0.000  0.000  0.000  0.007  0.001  0.000  0.012
   10  0.007  0.000  0.002  0.001  0.001  0.005  0.003  0.014  0.000  0.033
   11  0.001  0.000  0.002  0.000  0.000  0.000  0.007  0.001  0.000  0.012
   12  0.007  0.000  0.002  0.001  0.001  0.005  0.003  0.014  0.000  0.033
   13  0.025  0.000  0.000  0.000  0.005  0.000  0.010  0.001  0.002  0.043
   14  0.005  0.000  0.000  0.000  0.092  0.001  0.009  0.003  0.031  0.141
   15  0.025  0.000  0.000  0.000  0.005  0.000  0.010  0.001  0.002  0.043
   16  0.005  0.000  0.000  0.000  0.092  0.001  0.009  0.003  0.031  0.141
tot    0.120  0.001  0.016  0.004  0.239  0.049  0.152  0.146  0.080  0.807
 
band    17 # energy   -6.04549069 # occ.  2.00000000
 
ion      s     py     pz     px    dxy    dyz    dz2    dxz  x2-y2    tot
    1  0.000  0.000  0.000  0.000  0.000  0.000  0.000  0.000  0.000  0.001
    2  0.000  0.000  0.000  0.000  0.000  0.010  0.000  0.003  0.000  0.013
    3  0.000  0.000  0.000  0.000  0.000  0.000  0.000  0.000  0.000  0.001
    4  0.000  0.000  0.000  0.000  0.000  0.010  0.000  0.003  0.000  0.013
    5  0.000  0.001  0.000  0.000  0.002  0.004  0.000  0.001  0.006  0.014
    6  0.002  0.000  0.000  0.000  0.010  0.001  0.001  0.004  0.003  0.022
    7  0.000  0.001  0.000  0.000  0.002  0.004  0.000  0.001  0.006  0.014
    8  0.002  0.000  0.000  0.000  0.010  0.001  0.001  0.004  0.003  0.022
    9  0.000  0.000  0.000  0.000  0.000  0.005  0.000  0.002  0.000  0.007
   10  0.007  0.000  0.000  0.000  0.000  0.007  0.070  0.022  0.000  0.107
   11  0.000  0.000  0.000  0.000  0.000  0.005  0.000  0.002  0.000  0.007
   12  0.007  0.000  0.000  0.000  0.000  0.007  0.070  0.022  0.000  0.107
   13  0.003  0.000  0.000  0.001  0.002  0.001  0.000  0.003  0.001  0.011
   14  0.000  0.001  0.000  0.000  0.009  0.168  0.000  0.056  0.026  0.260
   15  0.003  0.000  0.000  0.001  0.002  0.001  0.000  0.003  0.001  0.011
   16  0.000  0.001  0.000  0.000  0.009  0.167  0.000  0.056  0.026  0.260
tot    0.024  0.006  0.001  0.005  0.045  0.391  0.143  0.183  0.073  0.871
 
band    18 # energy   -5.77949112 # occ.  2.00000000
 
ion      s     py     pz     px    dxy    dyz    dz2    dxz  x2-y2    tot
    1  0.001  0.000  0.000  0.000  0.001  0.000  0.000  0.000  0.000  0.003
    2  0.000  0.000  0.000  0.000  0.007  0.003  0.000  0.001  0.020  0.031
    3  0.001  0.000  0.000  0.000  0.001  0.000  0.000  0.000  0.000  0.003
    4  0.000  0.000  0.000  0.000  0.007  0.003  0.000  0.001  0.020  0.031
    5  0.000  0.000  0.000  0.000  0.006  0.000  0.000  0.000  0.017  0.023
    6  0.001  0.000  0.001  0.000  0.029  0.003  0.062  0.009  0.010  0.115
    7  0.000  0.000  0.000  0.000  0.006  0.000  0.000  0.000  0.017  0.023
    8  0.001  0.000  0.001  0.000  0.029  0.003  0.062  0.009  0.010  0.115
    9  0.000  0.000  0.000  0.000  0.018  0.001  0.000  0.000  0.053  0.072
   10  0.013  0.000  0.000  0.000  0.090  0.002  0.027  0.007  0.030  0.169
   11  0.000  0.000  0.000  0.000  0.018  0.001  0.000  0.000  0.053  0.072
   12  0.013  0.000  0.000  0.000  0.090  0.002  0.027  0.007  0.030  0.169
   13  0.001  0.000  0.000  0.000  0.000  0.001  0.003  0.002  0.000  0.007
   14  0.000  0.000  0.000  0.000  0.000  0.018  0.000  0.006  0.000  0.024
   15  0.001  0.000  0.000  0.000  0.000  0.001  0.003  0.002  0.000  0.007
   16  0.000  0.000  0.000  0.000  0.000  0.018  0.000  0.006  0.000  0.024
tot    0.032  0.000  0.004  0.001  0.301  0.055  0.185  0.049  0.262  0.889
 
band    19 # energy   -5.73697847 # occ.  2.00000000
 
ion      s     py     pz     px    dxy    dyz    dz2    dxz  x2-y2    tot
    1  0.000  0.000  0.001  0.000  0.000  0.000  0.006  0.001  0.000  0.009
    2  0.000  0.000  0.000  0.000  0.002  0.000  0.000  0.000  0.005  0.007
    3  0.000  0.000  0.001  0.000  0.000  0.000  0.006  0.001  0.000  0.009
    4  0.000  0.000  0.000  0.000  0.002  0.000  0.000  0.000  0.005  0.007
    5  0.000  0.000  0.000  0.000  0.011  0.002  0.000  0.001  0.032  0.045
    6  0.014  0.000  0.001  0.000  0.065  0.020  0.001  0.060  0.022  0.182
    7  0.000  0.000  0.000  0.000  0.011  0.002  0.000  0.001  0.032  0.045
    8  0.014  0.000  0.001  0.000  0.065  0.020  0.001  0.060  0.022  0.182
    9  0.000  0.000  0.000  0.000  0.001  0.005  0.000  0.002  0.003  0.010
   10  0.003  0.000  0.002  0.000  0.007  0.026  0.003  0.079  0.002  0.121
   11  0.000  0.000  0.000  0.000  0.001  0.005  0.000  0.002  0.003  0.010
   12  0.003  0.000  0.002  0.000  0.007  0.026  0.003  0.079  0.002  0.121
   13  0.000  0.000  0.001  0.000  0.001  0.000  0.004  0.000  0.000  0.006
   14  0.000  0.000  0.000  0.000  0.009  0.024  0.000  0.008  0.027  0.068
   15  0.000  0.000  0.001  0.000  0.001  0.000  0.004  0.000  0.000  0.006
   16  0.000  0.000  0.000  0.000  0.009  0.024  0.000  0.008  0.027  0.068
tot    0.033  0.000  0.009  0.000  0.191  0.154  0.026  0.300  0.184  0.898
 
band    20 # energy   -5.71817955 # occ.  2.00000000
 
ion      s     py     pz     px    dxy    dyz    dz2    dxz  x2-y2    tot
    1  0.001  0.000  0.000  0.000  0.000  0.001  0.001  0.003  0.000  0.006
    2  0.004  0.000  0.001  0.000  0.009  0.008  0.050  0.024  0.003  0.100
    3  0.001  0.000  0.000  0.000  0.000  0.001  0.001  0.003  0.000  0.006
    4  0.004  0.000  0.001  0.000  0.009  0.008  0.050  0.024  0.003  0.100
    5  0.000  0.000  0.003  0.001  0.001  0.002  0.000  0.006  0.000  0.013
    6  0.000  0.000  0.000  0.001  0.004  0.013  0.024  0.040  0.001  0.084
    7  0.000  0.000  0.003  0.001  0.001  0.002  0.000  0.006  0.000  0.013
    8  0.000  0.000  0.000  0.001  0.004  0.013  0.024  0.040  0.001  0.084
    9  0.001  0.000  0.001  0.000  0.000  0.003  0.000  0.010  0.000  0.015
   10  0.001  0.000  0.000  0.000  0.005  0.029  0.018  0.088  0.002  0.144
   11  0.001  0.000  0.001  0.000  0.000  0.003  0.000  0.010  0.000  0.015
   12  0.001  0.000  0.000  0.000  0.005  0.029  0.018  0.088  0.002  0.144
   13  0.000  0.000  0.000  0.001  0.000  0.001  0.000  0.004  0.000  0.006
   14  0.001  0.000  0.001  0.000  0.004  0.005  0.045  0.016  0.001  0.074
   15  0.000  0.000  0.000  0.001  0.000  0.001  0.000  0.004  0.000  0.006
   16  0.001  0.000  0.001  0.000  0.004  0.005  0.045  0.016  0.001  0.074
tot    0.017  0.002  0.012  0.005  0.047  0.127  0.277  0.381  0.016  0.885
 
band    21 # energy   -5.59462988 # occ.  2.00000000
 
ion      s     py     pz     px    dxy    dyz    dz2    dxz  x2-y2    tot
    1  0.000  0.000  0.000  0.000  0.000  0.002  0.000  0.006  0.000  0.008
    2  0.001  0.000  0.001  0.000  0.007  0.025  0.075  0.076  0.002  0.189
    3  0.000  0.000  0.000  0.000  0.000  0.002  0.000  0.006  0.000  0.008
    4  0.001  0.000  0.001  0.000  0.007  0.025  0.075  0.076  0.002  0.189
    5  0.000  0.000  0.000  0.000  0.001  0.000  0.000  0.000  0.000  0.002
    6  0.001  0.000  0.003  0.000  0.003  0.008  0.091  0.024  0.001  0.131
    7  0.000  0.000  0.000  0.000  0.001  0.000  0.000  0.000  0.000  0.002
    8  0.001  0.000  0.003  0.000  0.003  0.008  0.091  0.024  0.001  0.131
    9  0.002  0.000  0.000  0.000  0.000  0.001  0.008  0.002  0.000  0.012
   10  0.000  0.000  0.000  0.000  0.015  0.008  0.044  0.023  0.005  0.095
   11  0.002  0.000  0.000  0.000  0.000  0.001  0.008  0.002  0.000  0.012
   12  0.000  0.000  0.000  0.000  0.015  0.008  0.044  0.023  0.005  0.095
   13  0.001  0.000  0.000  0.000  0.000  0.000  0.004  0.000  0.000  0.005
   14  0.002  0.000  0.000  0.000  0.009  0.000  0.004  0.001  0.003  0.019
   15  0.001  0.000  0.000  0.000  0.000  0.000  0.004  0.000  0.000  0.005
   16  0.002  0.000  0.000  0.000  0.009  0.000  0.004  0.001  0.003  0.019