<?xml version="1.0" encoding="ISO-8859-1"?>
<modeling>
 <generator>
  <i name="program" type="string">vasp </i>
  <i name="version" type="string">6.5.1  </i>
  <i name="subversion" type="string">10Mar25 (build Mar 14 2026 15:48:08) complex                          parallel </i>
  <i name="platform" type="string">LinuxNV </i>
  <i name="date" type="string">2026 03 23 </i>
  <i name="time" type="string">16:55:12 </i>
 </generator>
 <incar>
  <i type="string" name="SYSTEM">Cu-Ag alloy CO adsorption (RPBE, matches CatHub)</i>
  <i type="string" name="PREC">Normal</i>
  <i type="string" name="ALGO">Normal</i>
  <i type="int" name="ISPIN">     1</i>
  <i type="int" name="NELM">   200</i>
  <i type="int" name="IBRION">     2</i>
  <i name="EDIFF">      0.00000100</i>
  <i name="EDIFFG">     -0.03000000</i>
  <i type="int" name="NSW">   200</i>
  <i type="int" name="ISIF">     2</i>
  <i name="ENCUT">    450.00000000</i>
  <i type="string" name="LREAL">Auto</i>
  <i type="int" name="ISMEAR">     0</i>
  <i name="SIGMA">      0.10000000</i>
  <i type="logical" name="LWAVE"> F  </i>
  <i type="logical" name="LCHARG"> F  </i>
  <i type="int" name="LORBIT">    11</i>
  <i type="string" name="GGA">RP</i>
 </incar>
 <primitive_cell>
  <structure name="primitive_cell" >
   <crystal>
    <varray name="basis" >
     <v>       5.44472222       0.00000000       0.00000000 </v>
     <v>       2.72236111       4.71526775       0.00000000 </v>
     <v>       0.00000000       0.00000000      30.66839561 </v>
    </varray>
    <i name="volume">    787.35962928 </i>
    <varray name="rec_basis" >
     <v>       0.18366410      -0.10603852       0.00000000 </v>
     <v>       0.00000000       0.21207703       0.00000000 </v>
     <v>       0.00000000       0.00000000       0.03260686 </v>
    </varray>
   </crystal>
   <varray name="positions" >
    <v>       0.00000000       0.00000000       0.39128229 </v>
    <v>       0.50000000       0.00000000       0.39128229 </v>
    <v>       0.00000000       0.50000000       0.39128229 </v>
    <v>       0.50000000       0.50000000       0.39128229 </v>
    <v>       0.16666667       0.16666667       0.46376076 </v>
    <v>       0.66666667       0.16666667       0.46376076 </v>
    <v>       0.16666667       0.66666667       0.46376076 </v>
    <v>       0.66666667       0.66666667       0.46376076 </v>
    <v>       0.83333333       0.33333333       0.53623924 </v>
    <v>       0.33333333       0.33333333       0.53623924 </v>
    <v>       0.83333333       0.83333333       0.53623924 </v>
    <v>       0.33333333       0.83333333       0.53623924 </v>
    <v>       0.00000000       0.00000000       0.60871771 </v>
    <v>       0.50000000       0.00000000       0.60871771 </v>
    <v>       0.00000000       0.50000000       0.60871771 </v>
    <v>       0.50000000       0.50000000       0.60871771 </v>
   </varray>
  </structure>
  <varray name="primitive_index" >
   <v type="int" >        1 </v>
   <v type="int" >        2 </v>
   <v type="int" >        3 </v>
   <v type="int" >        4 </v>
   <v type="int" >        5 </v>
   <v type="int" >        6 </v>
   <v type="int" >        7 </v>
   <v type="int" >        8 </v>
   <v type="int" >        9 </v>
   <v type="int" >       10 </v>
   <v type="int" >       11 </v>
   <v type="int" >       12 </v>
   <v type="int" >       13 </v>
   <v type="int" >       14 </v>
   <v type="int" >       15 </v>
   <v type="int" >       16 </v>
  </varray>
 </primitive_cell>
 <kpoints>
  <generation param="Gamma">
   <v type="int" name="divisions">       4        4        1 </v>
   <v name="usershift">      0.00000000       0.00000000       0.00000000 </v>
   <v name="genvec1">      0.25000000       0.00000000       0.00000000 </v>
   <v name="genvec2">      0.00000000       0.25000000       0.00000000 </v>
   <v name="genvec3">      0.00000000       0.00000000       1.00000000 </v>
   <v name="shift">      0.00000000       0.00000000       0.00000000 </v>
  </generation>
  <varray name="kpointlist" >
   <v>       0.00000000       0.00000000       0.00000000 </v>
   <v>       0.25000000       0.00000000       0.00000000 </v>
   <v>       0.25000000       0.25000000       0.00000000 </v>
   <v>       0.00000000       0.25000000       0.00000000 </v>
   <v>       0.50000000       0.00000000       0.00000000 </v>
   <v>       0.50000000       0.50000000       0.00000000 </v>
   <v>       0.00000000       0.50000000       0.00000000 </v>
   <v>       0.50000000       0.25000000       0.00000000 </v>
   <v>       0.25000000       0.50000000       0.00000000 </v>
   <v>      -0.25000000       0.25000000       0.00000000 </v>
  </varray>
  <varray name="weights" >
   <v>       0.06250000 </v>
   <v>       0.12500000 </v>
   <v>       0.12500000 </v>
   <v>       0.12500000 </v>
   <v>       0.06250000 </v>
   <v>       0.06250000 </v>
   <v>       0.06250000 </v>
   <v>       0.12500000 </v>
   <v>       0.12500000 </v>
   <v>       0.12500000 </v>
  </varray>
 </kpoints>
 <parameters>
  <separator name="general" >
   <i type="string" name="SYSTEM">Cu-Ag alloy CO adsorption (RPBE, matches</i>
   <i type="logical" name="LCOMPAT"> F  </i>
  </separator>
  <separator name="electronic" >
   <i type="string" name="PREC">normal</i>
   <i name="ENMAX">    450.00000000</i>
   <i name="ENAUG">    586.98000000</i>
   <i name="EDIFF">      0.00000100</i>
   <i type="int" name="IALGO">    38</i>
   <i type="int" name="IWAVPR">    11</i>
   <i type="int" name="NBANDS">   105</i>
   <i type="int" name="NBANDSLOW">    -1</i>
   <i type="int" name="NBANDSHIGH">    -1</i>
   <i name="NELECT">    176.00000000</i>
   <i type="int" name="TURBO">     0</i>
   <i type="int" name="IRESTART">     0</i>
   <i type="int" name="NREBOOT">     0</i>
   <i type="int" name="NMIN">     0</i>
   <i name="EREF">      0.00000000</i>
   <separator name="electronic smearing" >
    <i type="int" name="ISMEAR">     0</i>
    <i name="SIGMA">      0.10000000</i>
    <i name="KSPACING">      0.50000000</i>
    <i type="logical" name="KGAMMA"> T  </i>
    <i type="logical" name="KBLOWUP"> T  </i>
   </separator>
   <separator name="electronic projectors" >
    <i type="logical" name="LREAL"> T  </i>
    <v name="ROPT">     -0.00050000     -0.00050000     -0.00050000     -0.00050000     -0.00050000     -0.00050000     -0.00050000     -0.00050000     -0.00050000     -0.00050000     -0.00050000     -0.00050000     -0.00050000     -0.00050000     -0.00050000     -0.00050000</v>
    <i type="int" name="LMAXPAW">  -100</i>
    <i type="int" name="LMAXMIX">     2</i>
    <i type="logical" name="NLSPLINE"> F  </i>
   </separator>
   <separator name="electronic startup" >
    <i type="int" name="ISTART">     0</i>
    <i type="int" name="ICHARG">     2</i>
    <i type="int" name="INIWAV">     1</i>
   </separator>
   <separator name="electronic spin" >
    <i type="int" name="ISPIN">     1</i>
    <i type="logical" name="LNONCOLLINEAR"> F  </i>
    <v name="MAGMOM">      1.00000000      1.00000000      1.00000000      1.00000000      1.00000000      1.00000000      1.00000000      1.00000000      1.00000000      1.00000000      1.00000000      1.00000000      1.00000000      1.00000000      1.00000000      1.00000000</v>
    <i name="NUPDOWN">     -1.00000000</i>
    <i type="logical" name="LSORBIT"> F  </i>
    <v name="SAXIS">      0.00000000      0.00000000      1.00000000</v>
    <i type="logical" name="LSPIRAL"> F  </i>
    <v name="QSPIRAL">      0.00000000      0.00000000      0.00000000</v>
    <i type="logical" name="LZEROZ"> F  </i>
   </separator>
   <separator name="electronic exchange-correlation" >
    <i type="logical" name="LASPH"> F  </i>
   </separator>
   <separator name="electronic convergence" >
    <i type="int" name="NELM">   200</i>
    <i type="int" name="NELMDL">    -5</i>
    <i type="int" name="NELMIN">     2</i>
    <i name="ENINI">    450.00000000</i>
    <separator name="electronic convergence detail" >
     <i type="logical" name="LDIAG"> T  </i>
     <i type="logical" name="LSUBROT"> F  </i>
     <i type="logical" name="LROBUST"> F  </i>
     <i type="int" name="ISEARCH">     0</i>
     <i name="WEIMIN">      0.00100000</i>
     <i name="EBREAK">      0.00000000</i>
     <i name="DEPER">      0.30000000</i>
     <i type="int" name="NRMM">     4</i>
     <i name="TIME">      0.40000000</i>
    </separator>
   </separator>
   <separator name="electronic mixer" >
    <i name="AMIX">      0.40000000</i>
    <i name="BMIX">      1.00000000</i>
    <i name="AMIN">      0.10000000</i>
    <i name="AMIX_MAG">      1.60000000</i>
    <i name="BMIX_MAG">      1.00000000</i>
    <separator name="electronic mixer details" >
     <i type="int" name="IMIX">     4</i>
     <i type="logical" name="MIXFIRST"> F  </i>
     <i type="int" name="MAXMIX">   -45</i>
     <i name="WC">    100.00000000</i>
     <i type="int" name="INIMIX">     1</i>
     <i type="int" name="MIXPRE">     1</i>
     <i type="int" name="MREMOVE">     5</i>
    </separator>
   </separator>
   <separator name="electronic dipolcorrection" >
    <i type="logical" name="LDIPOL"> F  </i>
    <i type="logical" name="LMONO"> F  </i>
    <i type="int" name="IDIPOL">     0</i>
    <i name="EPSILON">      1.00000000</i>
    <v name="DIPOL">   -100.00000000   -100.00000000   -100.00000000</v>
    <i name="EFIELD">      0.00000000</i>
    <i type="logical" name="LVACPOTAV"> F  </i>
   </separator>
  </separator>
  <separator name="grids" >
   <i type="int" name="NGX">    28</i>
   <i type="int" name="NGY">    28</i>
   <i type="int" name="NGZ">   160</i>
   <i type="int" name="NGXF">    56</i>
   <i type="int" name="NGYF">    56</i>
   <i type="int" name="NGZF">   320</i>
   <i type="logical" name="ADDGRID"> F  </i>
  </separator>
  <separator name="ionic" >
   <i type="int" name="NSW">   200</i>
   <i type="int" name="IBRION">     2</i>
   <i type="int" name="MDALGO">     0</i>
   <i type="int" name="ISIF">     2</i>
   <i name="PSTRESS">      0.00000000</i>
   <i name="EDIFFG">     -0.03000000</i>
   <i type="int" name="NFREE">     1</i>
   <i name="POTIM">      0.50000000</i>
   <i name="SMASS">     -3.00000000</i>
   <i name="SCALEE">      1.00000000</i>
  </separator>
  <separator name="ionic md" >
   <i name="TEBEG">      0.00010000</i>
   <i name="TEEND">      0.00010000</i>
   <i type="int" name="NBLOCK">     1</i>
   <i type="int" name="KBLOCK">   200</i>
   <i type="int" name="NPACO">   256</i>
   <i name="APACO">     10.00000000</i>
  </separator>
  <separator name="symmetry" >
   <i type="int" name="ISYM">     2</i>
   <i name="SYMPREC">      0.00001000</i>
  </separator>
  <separator name="dos" >
   <i type="int" name="LORBIT">    11</i>
   <v name="RWIGS">     -1.00000000     -1.00000000     -1.00000000     -1.00000000     -1.00000000     -1.00000000     -1.00000000     -1.00000000     -1.00000000     -1.00000000     -1.00000000     -1.00000000     -1.00000000     -1.00000000     -1.00000000     -1.00000000</v>
   <i type="int" name="NEDOS">   301</i>
   <i name="EMIN">     10.00000000</i>
   <i name="EMAX">    -10.00000000</i>
   <i name="EFERMI">      0.00000000</i>
  </separator>
  <separator name="writing" >
   <i type="int" name="NWRITE">     2</i>
   <i type="logical" name="LWAVE"> F  </i>
   <i type="logical" name="LDOWNSAMPLE"> F  </i>
   <i type="logical" name="LCHARG"> F  </i>
   <i type="logical" name="LPARD"> F  </i>
   <i type="logical" name="LVTOT"> F  </i>
   <i type="logical" name="LVHAR"> F  </i>
   <i type="logical" name="LELF"> F  </i>
   <i type="logical" name="LOPTICS"> F  </i>
   <v name="STM">      0.00000000      0.00000000      0.00000000      0.00000000      0.00000000      0.00000000      0.00000000</v>
  </separator>
  <separator name="performance" >
   <i type="int" name="NPAR">     1</i>
   <i type="int" name="NSIM">     4</i>
   <i type="int" name="NBLK">    -1</i>
   <i type="logical" name="LPLANE"> T  </i>
   <i type="logical" name="LSCALAPACK"> T  </i>
   <i type="logical" name="LSCAAWARE"> F  </i>
   <i type="logical" name="LSCALU"> F  </i>
   <i type="logical" name="LASYNC"> F  </i>
   <i type="logical" name="LORBITALREAL"> F  </i>
  </separator>
  <separator name="miscellaneous" >
   <i type="int" name="IDIOT">     3</i>
   <i type="int" name="PHON_NSTRUCT">    -1</i>
   <i type="logical" name="LMUSIC"> F  </i>
   <v name="POMASS">     63.54600000    107.86800000     63.54600000    107.86800000     63.54600000    107.86800000     63.54600000    107.86800000     63.54600000    107.86800000     63.54600000    107.86800000     63.54600000    107.86800000     63.54600000    107.86800000</v>
   <v name="DARWINR">      0.00000000      0.00000000      0.00000000      0.00000000      0.00000000      0.00000000      0.00000000      0.00000000      0.00000000      0.00000000      0.00000000      0.00000000      0.00000000      0.00000000      0.00000000      0.00000000</v>
   <v name="DARWINV">      1.00000000      1.00000000      1.00000000      1.00000000      1.00000000      1.00000000      1.00000000      1.00000000      1.00000000      1.00000000      1.00000000      1.00000000      1.00000000      1.00000000      1.00000000      1.00000000</v>
   <i type="logical" name="LCORR"> T  </i>
  </separator>
  <i type="logical" name="GGA_COMPAT"> T  </i>
  <i type="logical" name="LBERRY"> F  </i>
  <i type="int" name="ICORELEVEL">     0</i>
  <i type="logical" name="LDAU"> F  </i>
  <i type="int" name="I_CONSTRAINED_M">     0</i>
  <separator name="electronic exchange-correlation" >
   <i type="string" name="GGA    ">RP</i>
   <i type="string" name="XC_C">1</i>
   <i type="int" name="VOSKOWN">     0</i>
   <i type="logical" name="LHFCALC"> F  </i>
   <i type="string" name="PRECFOCK"></i>
   <i type="logical" name="LSYMGRAD"> F  </i>
   <i type="logical" name="LHFONE"> F  </i>
   <i type="logical" name="LRHFCALC"> F  </i>
   <i type="logical" name="LTHOMAS"> F  </i>
   <i type="logical" name="LMODELHF"> F  </i>
   <i type="logical" name="LFOCKACE"> F  </i>
   <i name="ENCUT4O">     -1.00000000</i>
   <i type="int" name="EXXOEP">     0</i>
   <i type="int" name="FOURORBIT">     0</i>
   <i name="AEXX">      0.00000000</i>
   <i name="HFALPHA">      0.00000000</i>
   <i name="MCALPHA">      0.00000000</i>
   <i name="ALDAX">      1.00000000</i>
   <i name="AGGAX">      1.00000000</i>
   <i name="AMGGAX">      1.00000000</i>
   <i name="ALDAC">      1.00000000</i>
   <i name="AGGAC">      1.00000000</i>
   <i name="AMGGAC">      1.00000000</i>
   <i type="int" name="NKREDX">     1</i>
   <i type="int" name="NKREDY">     1</i>
   <i type="int" name="NKREDZ">     1</i>
   <i type="logical" name="SHIFTRED"> F  </i>
   <i type="logical" name="ODDONLY"> F  </i>
   <i type="logical" name="EVENONLY"> F  </i>
   <i type="int" name="LMAXFOCK">     0</i>
   <i type="int" name="NMAXFOCKAE">     0</i>
   <i type="logical" name="LFOCKAEDFT"> F  </i>
   <i name="HFSCREEN">      0.00000000</i>
   <i name="HFSCREENC">      0.00000000</i>
   <i type="int" name="NBANDSGWLOW">     0</i>
  </separator>
  <separator name="vdW DFT" >
   <i type="logical" name="LUSE_VDW"> F  </i>
   <i type="int" name="IVDW_NL">    -1</i>
   <i type="logical" name="LSPIN_VDW"> F  </i>
   <i name="ZAB_VDW">     -0.84910000</i>
   <i name="GAMMA_VDW">      1.39626340</i>
   <i name="ALPHA_VDW">      0.00000000</i>
   <i name="PARAM1">      0.12340000</i>
   <i name="PARAM2">      1.00000000</i>
   <i name="BPARAM">      6.30000000</i>
   <i name="CPARAM">      0.00930000</i>
  </separator>
  <separator name="model GW" >
   <i type="int" name="MODEL_GW">     0</i>
   <i name="MODEL_EPS0">     29.52598610</i>
   <i name="MODEL_ALPHA">      1.00000000</i>
  </separator>
  <separator name="linear response parameters" >
   <i type="logical" name="LEPSILON"> F  </i>
   <i type="logical" name="LRPA"> F  </i>
   <i type="logical" name="LNABLA"> F  </i>
   <i type="logical" name="LVEL"> F  </i>
   <i name="CSHIFT">      0.10000000</i>
   <i name="OMEGAMAX">     -1.00000000</i>
   <i name="DEG_THRESHOLD">      0.00200000</i>
   <i name="RTIME">     -0.10000000</i>
   <i name="WPLASMAI">      0.00000000</i>
   <v name="DFIELD">      0.00000000      0.00000000      0.00000000</v>
   <v name="WPLASMA">      0.00000000      0.00000000      0.00000000      0.00000000      0.00000000      0.00000000      0.00000000      0.00000000      0.00000000</v>
  </separator>
  <separator name="orbital magnetization" >
   <i type="logical" name="NUCIND"> F  </i>
   <v name="MAGPOS">      0.00000000      0.00000000      0.00000000</v>
   <i type="logical" name="LNICSALL"> T  </i>
   <i type="logical" name="ORBITALMAG"> F  </i>
   <i type="logical" name="LMAGBLOCH"> F  </i>
   <i type="logical" name="LCHIMAG"> F  </i>
   <i type="logical" name="LGAUGE"> T  </i>
   <i type="int" name="MAGATOM">     0</i>
   <v name="MAGDIPOL">      0.00000000      0.00000000      0.00000000</v>
   <v name="AVECCONST">      0.00000000      0.00000000      0.00000000</v>
  </separator>
  <separator name="response functions" >
   <i type="logical" name="LALL_IN_ONE"> F  </i>
   <i type="int" name="IALL_IN_ONE">    -1</i>
   <i type="int" name="NBANDS_WAVE">    -1</i>
   <i type="logical" name="LFINITE_TEMPERATURE"> F  </i>
   <i type="logical" name="LADDER"> F  </i>
   <i type="logical" name="LRPAFORCE"> F  </i>
   <i type="logical" name="LFXC"> F  </i>
   <i type="logical" name="LHARTREE"> T  </i>
   <i type="int" name="IBSE">     2</i>
   <v type="int" name="KPOINT">    -1     0     0     0</v>
   <i type="logical" name="LTCTC"> F  </i>
   <i type="logical" name="LTCTE"> F  </i>
   <i type="logical" name="LTETE"> F  </i>
   <i type="logical" name="LTRIPLET"> F  </i>
   <i type="logical" name="LFXCEPS"> F  </i>
   <i type="logical" name="LFXHEG"> F  </i>
   <i type="int" name="NATURALO">     2</i>
   <i type="logical" name="LHOLEGF"> F  </i>
   <i type="logical" name="L2ORDER"> F  </i>
   <i type="logical" name="LDMP1"> F  </i>
   <i type="logical" name="LMP2LT"> F  </i>
   <i type="logical" name="LSMP2LT"> F  </i>
   <i type="logical" name="LGWLF"> F  </i>
   <i name="ENCUTGW">     -1.60000002</i>
   <i name="ENCUTGWSOFT">     -1.60000002</i>
   <i name="ENCUTLF">     -1.00000000</i>
   <i type="logical" name="ESF_SPLINES"> F  </i>
   <i name="ESF_CONV">      0.01000000</i>
   <i type="int" name="ESF_NINTER">    15</i>
   <i type="int" name="LMAXMP2">    -1</i>
   <i name="SCISSOR">      0.00000000</i>
   <i type="int" name="NOMEGA">     0</i>
   <i type="int" name="NOMEGAR">     0</i>
   <i type="int" name="NBANDSGW">    -1</i>
   <i type="int" name="NBANDSO">    -1</i>
   <i type="int" name="NBANDSV">    -1</i>
   <i type="int" name="NELMGW">     1</i>
   <i type="int" name="NELMHF">     1</i>
   <i type="int" name="DIM">     3</i>
   <i type="int" name="IESPILON">     4</i>
   <i type="int" name="ANTIRES">     0</i>
   <i name="OMEGAMAX">    -30.00000000</i>
   <i name="OMEGAMIN">    -30.00000000</i>
   <i name="OMEGATL">   -200.00000000</i>
   <i type="int" name="OMEGAGRID">     0</i>
   <i name="CSHIFT">     -0.10000000</i>
   <i type="logical" name="LSELFENERGY"> F  </i>
   <i type="logical" name="LSPECTRAL"> F  </i>
   <i type="logical" name="LSPECTRALGW"> F  </i>
   <i type="logical" name="LSINGLES"> F  </i>
   <i type="logical" name="LFERMIGW"> F  </i>
   <i type="logical" name="ODDONLYGW"> F  </i>
   <i type="logical" name="EVENONLYGW"> F  </i>
   <i type="int" name="NKREDLFX">     1</i>
   <i type="int" name="NKREDLFY">     1</i>
   <i type="int" name="NKREDLFZ">     1</i>
   <i type="int" name="MAXMEM">  2800</i>
   <i type="int" name="TELESCOPE">     0</i>
   <i type="int" name="NTAUPAR">    -1</i>
   <i type="int" name="NOMEGAPAR">    -1</i>
   <i name="DAMP_NEWTON">      0.80000001</i>
   <i name="LAMBDA">      1.00000000</i>
  </separator>
  <separator name="External order field" >
   <i name="OFIELD_KAPPA">      0.00000000</i>
   <v name="OFIELD_K">      0.00000000      0.00000000      0.00000000</v>
   <i name="OFIELD_Q6_NEAR">      0.00000000</i>
   <i name="OFIELD_Q6_FAR">      0.00000000</i>
   <i name="OFIELD_A">      0.00000000</i>
  </separator>
  <separator name="optional k-points parameters" >
   <i type="int" name="KPOINTS_OPT_MODE">     1</i>
   <i type="logical" name="LKPOINTS_OPT"> F  </i>
  </separator>
 </parameters>
 <atominfo>
  <atoms>      16 </atoms>
  <types>      16 </types>
  <array name="atoms" >
   <dimension dim="1">ion</dimension>
   <field type="string">element</field>
   <field type="int">atomtype</field>
   <set>
    <rc><c>Cu</c><c>   1</c></rc>
    <rc><c>Ag</c><c>   2</c></rc>
    <rc><c>Cu</c><c>   3</c></rc>
    <rc><c>Ag</c><c>   4</c></rc>
    <rc><c>Cu</c><c>   5</c></rc>
    <rc><c>Ag</c><c>   6</c></rc>
    <rc><c>Cu</c><c>   7</c></rc>
    <rc><c>Ag</c><c>   8</c></rc>
    <rc><c>Cu</c><c>   9</c></rc>
    <rc><c>Ag</c><c>  10</c></rc>
    <rc><c>Cu</c><c>  11</c></rc>
    <rc><c>Ag</c><c>  12</c></rc>
    <rc><c>Cu</c><c>  13</c></rc>
    <rc><c>Ag</c><c>  14</c></rc>
    <rc><c>Cu</c><c>  15</c></rc>
    <rc><c>Ag</c><c>  16</c></rc>
   </set>
  </array>
  <array name="atomtypes" >
   <dimension dim="1">type</dimension>
   <field type="int">atomspertype</field>
   <field type="string">element</field>
   <field>mass</field>
   <field>valence</field>
   <field type="string">pseudopotential</field>
   <set>
    <rc><c>   1</c><c>Cu</c><c>     63.54600000</c><c>     11.00000000</c><c>  PAW_PBE Cu 22Jun2005                  </c></rc>
    <rc><c>   1</c><c>Ag</c><c>    107.86800000</c><c>     11.00000000</c><c>  PAW_PBE Ag 02Apr2005                  </c></rc>
    <rc><c>   1</c><c>Cu</c><c>     63.54600000</c><c>     11.00000000</c><c>  PAW_PBE Cu 22Jun2005                  </c></rc>
    <rc><c>   1</c><c>Ag</c><c>    107.86800000</c><c>     11.00000000</c><c>  PAW_PBE Ag 02Apr2005                  </c></rc>
    <rc><c>   1</c><c>Cu</c><c>     63.54600000</c><c>     11.00000000</c><c>  PAW_PBE Cu 22Jun2005                  </c></rc>
    <rc><c>   1</c><c>Ag</c><c>    107.86800000</c><c>     11.00000000</c><c>  PAW_PBE Ag 02Apr2005                  </c></rc>
    <rc><c>   1</c><c>Cu</c><c>     63.54600000</c><c>     11.00000000</c><c>  PAW_PBE Cu 22Jun2005                  </c></rc>
    <rc><c>   1</c><c>Ag</c><c>    107.86800000</c><c>     11.00000000</c><c>  PAW_PBE Ag 02Apr2005                  </c></rc>
    <rc><c>   1</c><c>Cu</c><c>     63.54600000</c><c>     11.00000000</c><c>  PAW_PBE Cu 22Jun2005                  </c></rc>
    <rc><c>   1</c><c>Ag</c><c>    107.86800000</c><c>     11.00000000</c><c>  PAW_PBE Ag 02Apr2005                  </c></rc>
    <rc><c>   1</c><c>Cu</c><c>     63.54600000</c><c>     11.00000000</c><c>  PAW_PBE Cu 22Jun2005                  </c></rc>
    <rc><c>   1</c><c>Ag</c><c>    107.86800000</c><c>     11.00000000</c><c>  PAW_PBE Ag 02Apr2005                  </c></rc>
    <rc><c>   1</c><c>Cu</c><c>     63.54600000</c><c>     11.00000000</c><c>  PAW_PBE Cu 22Jun2005                  </c></rc>
    <rc><c>   1</c><c>Ag</c><c>    107.86800000</c><c>     11.00000000</c><c>  PAW_PBE Ag 02Apr2005                  </c></rc>
    <rc><c>   1</c><c>Cu</c><c>     63.54600000</c><c>     11.00000000</c><c>  PAW_PBE Cu 22Jun2005                  </c></rc>
    <rc><c>   1</c><c>Ag</c><c>    107.86800000</c><c>     11.00000000</c><c>  PAW_PBE Ag 02Apr2005                  </c></rc>
   </set>
  </array>
 </atominfo>
 <structure name="initialpos" >
  <crystal>
   <varray name="basis" >
    <v>       5.44472222       0.00000000       0.00000000 </v>
    <v>       2.72236111       4.71526775       0.00000000 </v>
    <v>       0.00000000       0.00000000      30.66839561 </v>
   </varray>
   <i name="volume">    787.35962928 </i>
   <varray name="rec_basis" >
    <v>       0.18366410      -0.10603852       0.00000000 </v>
    <v>       0.00000000       0.21207703       0.00000000 </v>
    <v>       0.00000000       0.00000000       0.03260686 </v>
   </varray>
  </crystal>
  <varray name="positions" >
   <v>       0.00000000       0.00000000       0.39128229 </v>
   <v>       0.50000000       0.00000000       0.39128229 </v>
   <v>       0.00000000       0.50000000       0.39128229 </v>
   <v>       0.50000000       0.50000000       0.39128229 </v>
   <v>       0.16666667       0.16666667       0.46376076 </v>
   <v>       0.66666667       0.16666667       0.46376076 </v>
   <v>       0.16666667       0.66666667       0.46376076 </v>
   <v>       0.66666667       0.66666667       0.46376076 </v>
   <v>       0.83333333       0.33333333       0.53623924 </v>
   <v>       0.33333333       0.33333333       0.53623924 </v>
   <v>       0.83333333       0.83333333       0.53623924 </v>
   <v>       0.33333333       0.83333333       0.53623924 </v>
   <v>       0.00000000       0.00000000       0.60871771 </v>
   <v>       0.50000000       0.00000000       0.60871771 </v>
   <v>       0.00000000       0.50000000       0.60871771 </v>
   <v>       0.50000000       0.50000000       0.60871771 </v>
  </varray>
  <varray name="selective"  type="logical" >
   <v type="logical" >  F  F  F </v>
   <v type="logical" >  F  F  F </v>
   <v type="logical" >  F  F  F </v>
   <v type="logical" >  F  F  F </v>
   <v type="logical" >  F  F  F </v>
   <v type="logical" >  F  F  F </v>
   <v type="logical" >  F  F  F </v>
   <v type="logical" >  F  F  F </v>
   <v type="logical" >  T  T  T </v>
   <v type="logical" >  T  T  T </v>
   <v type="logical" >  T  T  T </v>
   <v type="logical" >  T  T  T </v>
   <v type="logical" >  T  T  T </v>
   <v type="logical" >  T  T  T </v>
   <v type="logical" >  T  T  T </v>
   <v type="logical" >  T  T  T </v>
  </varray>
  <nose>
   <v>      -3.00000000       0.00000000       0.00010000       0.00010000 </v>
  </nose>
 </structure>
 <calculation>
  <scstep>
   <time name="dav">    1.44    1.44</time>
   <time name="total">    1.48    1.48</time>
   <energy>
    <i name="alphaZ">    257.16835616 </i>
    <i name="ewald"> 127683.50929918 </i>
    <i name="hartreedc">-146568.94519265 </i>
    <i name="XCdc">    270.12043388 </i>
    <i name="pawpsdc">  17866.37084864 </i>
    <i name="pawaedc"> -18328.10595060 </i>
    <i name="eentropy">     -0.03230362 </i>
    <i name="bandstr">    903.33849961 </i>
    <i name="atom">  19413.10947982 </i>
    <i name="e_fr_energy">   1496.53347041 </i>
    <i name="e_wo_entrp">   1496.56577403 </i>
    <i name="e_0_energy">   1496.54962222 </i>
   </energy>
  </scstep>
  <scstep>
   <time name="dav">    1.37    1.37</time>
   <time name="total">    1.37    1.37</time>
   <energy>
    <i name="e_fr_energy">    139.79969406 </i>
    <i name="e_wo_entrp">    139.83361772 </i>
    <i name="e_0_energy">    139.81665589 </i>
   </energy>
  </scstep>
  <scstep>
   <time name="dav">    1.53    1.54</time>
   <time name="total">    1.53    1.54</time>
   <energy>
    <i name="e_fr_energy">    -33.73152038 </i>
    <i name="e_wo_entrp">    -33.66299073 </i>
    <i name="e_0_energy">    -33.69725556 </i>
   </energy>
  </scstep>
  <scstep>
   <time name="dav">    1.68    1.69</time>
   <time name="total">    1.69    1.69</time>
   <energy>
    <i name="e_fr_energy">    -44.63913445 </i>
    <i name="e_wo_entrp">    -44.56712877 </i>
    <i name="e_0_energy">    -44.60313161 </i>
   </energy>
  </scstep>
  <scstep>
   <time name="dav">    1.71    1.71</time>
   <time name="total">    1.84    1.84</time>
   <energy>
    <i name="e_fr_energy">    -44.87416397 </i>
    <i name="e_wo_entrp">    -44.80242938 </i>
    <i name="e_0_energy">    -44.83829668 </i>
   </energy>
  </scstep>
  <scstep>
   <time name="dav">    1.67    1.68</time>
   <time name="total">    1.82    1.83</time>
   <energy>
    <i name="e_fr_energy">    -42.98412101 </i>
    <i name="e_wo_entrp">    -42.95855468 </i>
    <i name="e_0_energy">    -42.97133784 </i>
   </energy>
  </scstep>
  <scstep>
   <time name="dav">    1.58    1.59</time>
   <time name="total">    1.73    1.73</time>
   <energy>
    <i name="e_fr_energy">    -38.53485884 </i>
    <i name="e_wo_entrp">    -38.46711436 </i>
    <i name="e_0_energy">    -38.50098660 </i>
   </energy>
  </scstep>
  <scstep>
   <time name="dav">    1.86    1.87</time>
   <time name="total">    2.01    2.02</time>
   <energy>
    <i name="e_fr_energy">    -38.93345399 </i>
    <i name="e_wo_entrp">    -38.87174641 </i>
    <i name="e_0_energy">    -38.90260020 </i>
   </energy>
  </scstep>
  <scstep>
   <time name="dav">    1.76    1.76</time>
   <time name="total">    1.90    1.91</time>
   <energy>
    <i name="e_fr_energy">    -38.96253102 </i>
    <i name="e_wo_entrp">    -38.90385070 </i>
    <i name="e_0_energy">    -38.93319086 </i>
   </energy>
  </scstep>
  <scstep>
   <time name="dav">    1.78    1.79</time>
   <time name="total">    1.94    1.94</time>
   <energy>
    <i name="e_fr_energy">    -38.71277487 </i>
    <i name="e_wo_entrp">    -38.66917897 </i>
    <i name="e_0_energy">    -38.69097692 </i>
   </energy>
  </scstep>
  <scstep>
   <time name="dav">    1.83    1.84</time>
   <time name="total">    1.98    1.99</time>
   <energy>
    <i name="e_fr_energy">    -38.64297905 </i>
    <i name="e_wo_entrp">    -38.59315552 </i>
    <i name="e_0_energy">    -38.61806729 </i>
   </energy>
  </scstep>
  <scstep>
   <time name="dav">    1.83    1.83</time>
   <time name="total">    1.98    1.98</time>
   <energy>
    <i name="e_fr_energy">    -38.64093699 </i>
    <i name="e_wo_entrp">    -38.58951033 </i>
    <i name="e_0_energy">    -38.61522366 </i>
   </energy>
  </scstep>
  <scstep>
   <time name="dav">    1.72    1.73</time>
   <time name="total">    1.87    1.88</time>
   <energy>
    <i name="e_fr_energy">    -38.64117066 </i>
    <i name="e_wo_entrp">    -38.58856741 </i>
    <i name="e_0_energy">    -38.61486903 </i>
   </energy>
  </scstep>
  <scstep>
   <time name="dav">    1.64    1.64</time>
   <time name="total">    1.79    1.79</time>
   <energy>
    <i name="e_fr_energy">    -38.64111450 </i>
    <i name="e_wo_entrp">    -38.58822707 </i>
    <i name="e_0_energy">    -38.61467079 </i>
   </energy>
  </scstep>
  <scstep>
   <time name="dav">    1.42    1.42</time>
   <time name="total">    1.57    1.57</time>
   <energy>
    <i name="e_fr_energy">    -38.64084780 </i>
    <i name="e_wo_entrp">    -38.58803204 </i>
    <i name="e_0_energy">    -38.61443992 </i>
   </energy>
  </scstep>
  <scstep>
   <time name="dav">    1.79    1.80</time>
   <time name="total">    1.95    1.95</time>
   <energy>
    <i name="e_fr_energy">    -38.64064024 </i>
    <i name="e_wo_entrp">    -38.58819514 </i>
    <i name="e_0_energy">    -38.61441769 </i>
   </energy>
  </scstep>
  <scstep>
   <time name="dav">    1.74    1.74</time>
   <time name="total">    1.89    1.89</time>
   <energy>
    <i name="e_fr_energy">    -38.64067389 </i>
    <i name="e_wo_entrp">    -38.58820413 </i>
    <i name="e_0_energy">    -38.61443901 </i>
   </energy>
  </scstep>
  <scstep>
   <time name="dav">    1.76    1.76</time>
   <time name="total">    1.91    1.91</time>
   <energy>
    <i name="e_fr_energy">    -38.64077844 </i>
    <i name="e_wo_entrp">    -38.58819042 </i>
    <i name="e_0_energy">    -38.61448443 </i>
   </energy>
  </scstep>
  <scstep>
   <time name="dav">    1.57    1.58</time>
   <time name="total">    1.73    1.73</time>
   <energy>
    <i name="e_fr_energy">    -38.64087581 </i>
    <i name="e_wo_entrp">    -38.58822775 </i>
    <i name="e_0_energy">    -38.61455178 </i>
   </energy>
  </scstep>
  <scstep>
   <time name="dav">    1.73    1.73</time>
   <time name="total">    1.88    1.89</time>
   <energy>
    <i name="e_fr_energy">    -38.64100087 </i>
    <i name="e_wo_entrp">    -38.58832746 </i>
    <i name="e_0_energy">    -38.61466417 </i>
   </energy>
  </scstep>
  <scstep>
   <time name="dav">    1.43    1.44</time>
   <time name="total">    1.58    1.59</time>
   <energy>
    <i name="e_fr_energy">    -38.64110220 </i>
    <i name="e_wo_entrp">    -38.58845797 </i>
    <i name="e_0_energy">    -38.61478008 </i>
   </energy>
  </scstep>
  <scstep>
   <time name="dav">    1.19    1.19</time>
   <time name="total">    1.34    1.35</time>
   <energy>
    <i name="e_fr_energy">    -38.64115242 </i>
    <i name="e_wo_entrp">    -38.58851309 </i>
    <i name="e_0_energy">    -38.61483276 </i>
   </energy>
  </scstep>
  <scstep>
   <time name="dav">    1.28    1.28</time>
   <time name="total">    1.43    1.43</time>
   <energy>
    <i name="e_fr_energy">    -38.64120586 </i>
    <i name="e_wo_entrp">    -38.58856250 </i>
    <i name="e_0_energy">    -38.61488418 </i>
   </energy>
  </scstep>
  <scstep>
   <time name="dav">    1.11    1.11</time>
   <time name="total">    1.26    1.26</time>
   <energy>
    <i name="e_fr_energy">    -38.64125319 </i>
    <i name="e_wo_entrp">    -38.58860349 </i>
    <i name="e_0_energy">    -38.61492834 </i>
   </energy>
  </scstep>
  <scstep>
   <time name="dav">    0.98    0.99</time>
   <time name="total">    1.14    1.14</time>
   <energy>
    <i name="e_fr_energy">    -38.64127578 </i>
    <i name="e_wo_entrp">    -38.58863169 </i>
    <i name="e_0_energy">    -38.61495374 </i>
   </energy>
  </scstep>
  <scstep>
   <time name="dav">    0.95    0.95</time>
   <time name="total">    1.10    1.11</time>
   <energy>
    <i name="e_fr_energy">    -38.64128687 </i>
    <i name="e_wo_entrp">    -38.58864513 </i>
    <i name="e_0_energy">    -38.61496600 </i>
   </energy>
  </scstep>
  <scstep>
   <time name="dav">    0.95    0.95</time>
   <time name="total">    1.11    1.11</time>
   <energy>
    <i name="e_fr_energy">    -38.64129875 </i>
    <i name="e_wo_entrp">    -38.58865628 </i>
    <i name="e_0_energy">    -38.61497751 </i>
   </energy>
  </scstep>
  <scstep>
   <time name="dav">    0.97    0.97</time>
   <time name="total">    1.13    1.13</time>
   <energy>
    <i name="e_fr_energy">    -38.64130702 </i>
    <i name="e_wo_entrp">    -38.58866373 </i>
    <i name="e_0_energy">    -38.61498537 </i>
   </energy>
  </scstep>
  <scstep>
   <time name="dav">    0.97    0.97</time>
   <time name="total">    1.13    1.13</time>
   <energy>
    <i name="e_fr_energy">    -38.64130966 </i>
    <i name="e_wo_entrp">    -38.58866637 </i>
    <i name="e_0_energy">    -38.61498802 </i>
   </energy>
  </scstep>
  <scstep>
   <time name="dav">    0.95    0.95</time>
   <time name="total">    1.11    1.11</time>
   <energy>
    <i name="e_fr_energy">    -38.64131381 </i>
    <i name="e_wo_entrp">    -38.58867122 </i>
    <i name="e_0_energy">    -38.61499252 </i>
   </energy>
  </scstep>
  <scstep>
   <time name="dav">    0.95    0.96</time>
   <time name="total">    1.11    1.11</time>
   <energy>
    <i name="e_fr_energy">    -38.64131493 </i>
    <i name="e_wo_entrp">    -38.58867181 </i>
    <i name="e_0_energy">    -38.61499337 </i>
   </energy>
  </scstep>
  <scstep>
   <time name="dav">    0.92    0.92</time>
   <time name="total">    0.94    0.94</time>
   <energy>
    <i name="alphaZ">    257.16835616 </i>
    <i name="ewald"> 127683.50929918 </i>
    <i name="hartreedc">-146411.01134759 </i>
    <i name="XCdc">    260.52038639 </i>
    <i name="pawpsdc">  19521.77992633 </i>
    <i name="pawaedc"> -20022.49093819 </i>
    <i name="eentropy">     -0.05264427 </i>
    <i name="bandstr">   -741.17383315 </i>
    <i name="atom">  19413.10947982 </i>
    <i name="e_fr_energy">    -38.64131532 </i>
    <i name="e_wo_entrp">    -38.58867106 </i>
    <i name="e_0_energy">    -38.61499319 </i>
   </energy>
  </scstep>
  <structure>
   <crystal>
    <varray name="basis" >
     <v>       5.44472222       0.00000000       0.00000000 </v>
     <v>       2.72236111       4.71526775       0.00000000 </v>
     <v>       0.00000000       0.00000000      30.66839561 </v>
    </varray>
    <i name="volume">    787.35962928 </i>
    <varray name="rec_basis" >
     <v>       0.18366410      -0.10603852       0.00000000 </v>
     <v>       0.00000000       0.21207703       0.00000000 </v>
     <v>       0.00000000       0.00000000       0.03260686 </v>
    </varray>
   </crystal>
   <varray name="positions" >
    <v>       0.00000000       0.00000000       0.39128229 </v>
    <v>       0.50000000       0.00000000       0.39128229 </v>
    <v>       0.00000000       0.50000000       0.39128229 </v>
    <v>       0.50000000       0.50000000       0.39128229 </v>
    <v>       0.16666667       0.16666667       0.46376076 </v>
    <v>       0.66666667       0.16666667       0.46376076 </v>
    <v>       0.16666667       0.66666667       0.46376076 </v>
    <v>       0.66666667       0.66666667       0.46376076 </v>
    <v>       0.83333333       0.33333333       0.53623924 </v>
    <v>       0.33333333       0.33333333       0.53623924 </v>
    <v>       0.83333333       0.83333333       0.53623924 </v>
    <v>       0.33333333       0.83333333       0.53623924 </v>
    <v>       0.00000000       0.00000000       0.60871771 </v>
    <v>       0.50000000       0.00000000       0.60871771 </v>
    <v>       0.00000000       0.50000000       0.60871771 </v>
    <v>       0.50000000       0.50000000       0.60871771 </v>
   </varray>
  </structure>
  <varray name="forces" >
   <v>       0.16401276      -0.09469353       0.17896636 </v>
   <v>      -0.26557874       0.15332905      -1.10762015 </v>
   <v>       0.16401190      -0.09469382       0.17896408 </v>
   <v>      -0.26557943       0.15333046      -1.10762017 </v>
   <v>      -0.29451827       0.17006973      -0.11255094 </v>
   <v>       0.50397186      -0.29096762       0.52438902 </v>
   <v>      -0.29451940       0.17007083      -0.11254983 </v>
   <v>       0.50397276      -0.29096502       0.52439035 </v>
   <v>       0.29451665      -0.17006918       0.11255851 </v>
   <v>      -0.50397051       0.29096511      -0.52438730 </v>
   <v>       0.29451685      -0.17006894       0.11255800 </v>
   <v>      -0.50397002       0.29096507      -0.52438661 </v>
   <v>      -0.16401259       0.09469315      -0.17896757 </v>
   <v>       0.26557953      -0.15332985       1.10761046 </v>
   <v>      -0.16401196       0.09469418      -0.17896624 </v>
   <v>       0.26557861      -0.15332964       1.10761203 </v>
  </varray>
  <varray name="stress" >
   <v>      20.61350849       3.80021033       0.86227151 </v>
   <v>       3.80021066      24.98678430      -0.49784131 </v>
   <v>       0.86227139      -0.49784120      22.12799507 </v>
  </varray>
  <energy>
   <i name="e_fr_energy">    -38.64131532 </i>
   <i name="e_wo_entrp">    -38.58867106 </i>
   <i name="e_0_energy">    -38.61499319 </i>
  </energy>
  <time name="totalsc">   52.64   52.76</time>
 </calculation>
 <calculation>
  <scstep>
   <time name="dav">    1.31    1.31</time>
   <time name="total">    1.46    1.46</time>
   <energy>
    <i name="alphaZ">    257.16835616 </i>
    <i name="ewald"> 127407.98114861 </i>
    <i name="hartreedc">-146136.75417643 </i>
    <i name="XCdc">    260.36161194 </i>
    <i name="pawpsdc">  19521.77719817 </i>
    <i name="pawaedc"> -20022.48877796 </i>
    <i name="eentropy">     -0.05170469 </i>
    <i name="bandstr">   -739.79482181 </i>
    <i name="atom">  19413.10947982 </i>
    <i name="e_fr_energy">    -38.69168619 </i>
    <i name="e_wo_entrp">    -38.63998150 </i>
    <i name="e_0_energy">    -38.66583385 </i>
   </energy>
  </scstep>
  <scstep>
   <time name="dav">    1.89    1.90</time>
   <time name="total">    2.04    2.05</time>
   <energy>
    <i name="e_fr_energy">    -38.80559773 </i>
    <i name="e_wo_entrp">    -38.75782134 </i>
    <i name="e_0_energy">    -38.78170954 </i>
   </energy>
  </scstep>
  <scstep>
   <time name="dav">    1.61    1.61</time>
   <time name="total">    1.76    1.76</time>
   <energy>
    <i name="e_fr_energy">    -38.79767673 </i>
    <i name="e_wo_entrp">    -38.74685817 </i>
    <i name="e_0_energy">    -38.77226745 </i>
   </energy>
  </scstep>
  <scstep>
   <time name="dav">    1.73    1.73</time>
   <time name="total">    1.87    1.88</time>
   <energy>
    <i name="e_fr_energy">    -38.79919844 </i>
    <i name="e_wo_entrp">    -38.74777773 </i>
    <i name="e_0_energy">    -38.77348808 </i>
   </energy>
  </scstep>
  <scstep>
   <time name="dav">    1.88    1.89</time>
   <time name="total">    2.03    2.03</time>
   <energy>
    <i name="e_fr_energy">    -38.79657788 </i>
    <i name="e_wo_entrp">    -38.74474633 </i>
    <i name="e_0_energy">    -38.77066210 </i>
   </energy>
  </scstep>
  <scstep>
   <time name="dav">    1.97    1.97</time>
   <time name="total">    2.11    2.12</time>
   <energy>
    <i name="e_fr_energy">    -38.79566948 </i>
    <i name="e_wo_entrp">    -38.74304182 </i>
    <i name="e_0_energy">    -38.76935565 </i>
   </energy>
  </scstep>
  <scstep>
   <time name="dav">    1.81    1.82</time>
   <time name="total">    1.96    1.96</time>
   <energy>
    <i name="e_fr_energy">    -38.79552256 </i>
    <i name="e_wo_entrp">    -38.74360557 </i>
    <i name="e_0_energy">    -38.76956406 </i>
   </energy>
  </scstep>
  <scstep>
   <time name="dav">    1.56    1.57</time>
   <time name="total">    1.71    1.72</time>
   <energy>
    <i name="e_fr_energy">    -38.79547478 </i>
    <i name="e_wo_entrp">    -38.74341195 </i>
    <i name="e_0_energy">    -38.76944336 </i>
   </energy>
  </scstep>
  <scstep>
   <time name="dav">    1.66    1.67</time>
   <time name="total">    1.81    1.81</time>
   <energy>
    <i name="e_fr_energy">    -38.79543245 </i>
    <i name="e_wo_entrp">    -38.74366503 </i>
    <i name="e_0_energy">    -38.76954874 </i>
   </energy>
  </scstep>
  <scstep>
   <time name="dav">    1.62    1.63</time>
   <time name="total">    1.77    1.77</time>
   <energy>
    <i name="e_fr_energy">    -38.79542834 </i>
    <i name="e_wo_entrp">    -38.74364992 </i>
    <i name="e_0_energy">    -38.76953913 </i>
   </energy>
  </scstep>
  <scstep>
   <time name="dav">    1.58    1.58</time>
   <time name="total">    1.72    1.73</time>
   <energy>
    <i name="e_fr_energy">    -38.79542938 </i>
    <i name="e_wo_entrp">    -38.74366750 </i>
    <i name="e_0_energy">    -38.76954844 </i>
   </energy>
  </scstep>
  <scstep>
   <time name="dav">    1.26    1.26</time>
   <time name="total">    1.29    1.29</time>
   <energy>
    <i name="alphaZ">    257.16835616 </i>
    <i name="ewald"> 127407.98114861 </i>
    <i name="hartreedc">-146136.90777408 </i>
    <i name="XCdc">    260.36264108 </i>
    <i name="pawpsdc">  19494.31902073 </i>
    <i name="pawaedc"> -19994.70252737 </i>
    <i name="eentropy">     -0.05175791 </i>
    <i name="bandstr">   -740.07401655 </i>
    <i name="atom">  19413.10947982 </i>
    <i name="e_fr_energy">    -38.79542951 </i>
    <i name="e_wo_entrp">    -38.74367160 </i>
    <i name="e_0_energy">    -38.76955056 </i>
   </energy>
  </scstep>
  <structure>
   <crystal>
    <varray name="basis" >
     <v>       5.44472222       0.00000000       0.00000000 </v>
     <v>       2.72236111       4.71526775       0.00000000 </v>
     <v>       0.00000000       0.00000000      30.66839561 </v>
    </varray>
    <i name="volume">    787.35962928 </i>
    <varray name="rec_basis" >
     <v>       0.18366410      -0.10603852       0.00000000 </v>
     <v>       0.00000000       0.21207703       0.00000000 </v>
     <v>       0.00000000       0.00000000       0.03260686 </v>
    </varray>
   </crystal>
   <varray name="positions" >
    <v>       0.00000000       0.00000000       0.39128229 </v>
    <v>       0.50000000       0.00000000       0.39128229 </v>
    <v>       0.00000000       0.50000000       0.39128229 </v>
    <v>       0.50000000       0.50000000       0.39128229 </v>
    <v>       0.16666667       0.16666667       0.46376076 </v>
    <v>       0.66666667       0.16666667       0.46376076 </v>
    <v>       0.16666667       0.66666667       0.46376076 </v>
    <v>       0.66666667       0.66666667       0.46376076 </v>
    <v>       0.83681288       0.33159333       0.53641630 </v>
    <v>       0.32737948       0.33631024       0.53541435 </v>
    <v>       0.83681288       0.83159333       0.53641630 </v>
    <v>       0.32737948       0.83631024       0.53541436 </v>
    <v>       0.99806237       0.00096882       0.60843619 </v>
    <v>       0.50313752       0.99843126       0.61046003 </v>
    <v>       0.99806237       0.50096883       0.60843619 </v>
    <v>       0.50313751       0.49843126       0.61046003 </v>
   </varray>
  </structure>
  <varray name="forces" >
   <v>       0.16248719      -0.09383595       0.17467001 </v>
   <v>      -0.26479405       0.15288442      -1.11994657 </v>
   <v>       0.16248697      -0.09383593       0.17466857 </v>
   <v>      -0.26479363       0.15288381      -1.11994743 </v>
   <v>      -0.31161044       0.17993814      -0.21703735 </v>
   <v>       0.51912685      -0.29971566       0.53061816 </v>
   <v>      -0.31161128       0.17993711      -0.21703705 </v>
   <v>       0.51912863      -0.29971656       0.53061761 </v>
   <v>       0.04103141      -0.02371701       0.12392110 </v>
   <v>      -0.17835428       0.10301980      -0.05979293 </v>
   <v>       0.04103147      -0.02371739       0.12392143 </v>
   <v>      -0.17835281       0.10301994      -0.05979347 </v>
   <v>      -0.05471187       0.03157426      -0.16810548 </v>
   <v>       0.08682417      -0.05014624       0.73567464 </v>
   <v>      -0.05471236       0.03157396      -0.16810549 </v>
   <v>       0.08682405      -0.05014672       0.73567425 </v>
  </varray>
  <varray name="stress" >
   <v>      19.88453065       3.47654783       0.25702957 </v>
   <v>       3.47654813      23.88396547      -0.14834385 </v>
   <v>       0.25702960      -0.14834385      19.36389588 </v>
  </varray>
  <energy>
   <i name="e_fr_energy">    -38.79542951 </i>
   <i name="e_wo_entrp">    -38.74367160 </i>
   <i name="e_0_energy">    -38.76955056 </i>
  </energy>
  <time name="totalsc">   23.95   24.01</time>
 </calculation>
 <calculation>
  <scstep>
   <time name="dav">    1.31    1.32</time>
   <time name="total">    1.46    1.46</time>
   <energy>
    <i name="alphaZ">    257.16835616 </i>
    <i name="ewald"> 127131.97092237 </i>
    <i name="hartreedc">-145861.74025409 </i>
    <i name="XCdc">    260.24271931 </i>
    <i name="pawpsdc">  19494.32882797 </i>
    <i name="pawaedc"> -19994.71609631 </i>
    <i name="eentropy">     -0.05064836 </i>
    <i name="bandstr">   -739.05976485 </i>
    <i name="atom">  19413.10947982 </i>
    <i name="e_fr_energy">    -38.74645798 </i>
    <i name="e_wo_entrp">    -38.69580962 </i>
    <i name="e_0_energy">    -38.72113380 </i>
   </energy>
  </scstep>
  <scstep>
   <time name="dav">    1.88    1.89</time>
   <time name="total">    2.03    2.03</time>
   <energy>
    <i name="e_fr_energy">    -38.86126691 </i>
    <i name="e_wo_entrp">    -38.81439100 </i>
    <i name="e_0_energy">    -38.83782895 </i>
   </energy>
  </scstep>
  <scstep>
   <time name="dav">    1.61    1.61</time>
   <time name="total">    1.75    1.76</time>
   <energy>
    <i name="e_fr_energy">    -38.85341938 </i>
    <i name="e_wo_entrp">    -38.80362528 </i>
    <i name="e_0_energy">    -38.82852233 </i>
   </energy>
  </scstep>
  <scstep>
   <time name="dav">    1.83    1.83</time>
   <time name="total">    1.97    1.98</time>
   <energy>
    <i name="e_fr_energy">    -38.85349390 </i>
    <i name="e_wo_entrp">    -38.80330605 </i>
    <i name="e_0_energy">    -38.82839998 </i>
   </energy>
  </scstep>
  <scstep>
   <time name="dav">    1.87    1.87</time>
   <time name="total">    2.01    2.02</time>
   <energy>
    <i name="e_fr_energy">    -38.85203800 </i>
    <i name="e_wo_entrp">    -38.80145003 </i>
    <i name="e_0_energy">    -38.82674402 </i>
   </energy>
  </scstep>
  <scstep>
   <time name="dav">    1.99    1.99</time>
   <time name="total">    2.14    2.14</time>
   <energy>
    <i name="e_fr_energy">    -38.85130276 </i>
    <i name="e_wo_entrp">    -38.79989727 </i>
    <i name="e_0_energy">    -38.82560001 </i>
   </energy>
  </scstep>
  <scstep>
   <time name="dav">    1.81    1.81</time>
   <time name="total">    1.96    1.96</time>
   <energy>
    <i name="e_fr_energy">    -38.85117848 </i>
    <i name="e_wo_entrp">    -38.80033001 </i>
    <i name="e_0_energy">    -38.82575425 </i>
   </energy>
  </scstep>
  <scstep>
   <time name="dav">    1.59    1.60</time>
   <time name="total">    1.74    1.74</time>
   <energy>
    <i name="e_fr_energy">    -38.85117191 </i>
    <i name="e_wo_entrp">    -38.80013004 </i>
    <i name="e_0_energy">    -38.82565097 </i>
   </energy>
  </scstep>
  <scstep>
   <time name="dav">    1.67    1.68</time>
   <time name="total">    1.82    1.82</time>
   <energy>
    <i name="e_fr_energy">    -38.85113176 </i>
    <i name="e_wo_entrp">    -38.80034590 </i>
    <i name="e_0_energy">    -38.82573883 </i>
   </energy>
  </scstep>
  <scstep>
   <time name="dav">    1.68    1.69</time>
   <time name="total">    1.83    1.83</time>
   <energy>
    <i name="e_fr_energy">    -38.85112403 </i>
    <i name="e_wo_entrp">    -38.80035323 </i>
    <i name="e_0_energy">    -38.82573863 </i>
   </energy>
  </scstep>
  <scstep>
   <time name="dav">    1.60    1.61</time>
   <time name="total">    1.76    1.76</time>
   <energy>
    <i name="e_fr_energy">    -38.85112522 </i>
    <i name="e_wo_entrp">    -38.80037656 </i>
    <i name="e_0_energy">    -38.82575089 </i>
   </energy>
  </scstep>
  <scstep>
   <time name="dav">    1.26    1.26</time>
   <time name="total">    1.29    1.29</time>
   <energy>
    <i name="alphaZ">    257.16835616 </i>
    <i name="ewald"> 127131.97092237 </i>
    <i name="hartreedc">-145861.85784483 </i>
    <i name="XCdc">    260.24414104 </i>
    <i name="pawpsdc">  19477.46474669 </i>
    <i name="pawaedc"> -19977.64879322 </i>
    <i name="eentropy">     -0.05074466 </i>
    <i name="bandstr">   -739.25138931 </i>
    <i name="atom">  19413.10947982 </i>
    <i name="e_fr_energy">    -38.85112594 </i>
    <i name="e_wo_entrp">    -38.80038127 </i>
    <i name="e_0_energy">    -38.82575360 </i>
   </energy>
  </scstep>
  <structure>
   <crystal>
    <varray name="basis" >
     <v>       5.44472222       0.00000000       0.00000000 </v>
     <v>       2.72236111       4.71526775       0.00000000 </v>
     <v>       0.00000000       0.00000000      30.66839561 </v>
    </varray>
    <i name="volume">    787.35962928 </i>
    <varray name="rec_basis" >
     <v>       0.18366410      -0.10603852       0.00000000 </v>
     <v>       0.00000000       0.21207703       0.00000000 </v>
     <v>       0.00000000       0.00000000       0.03260686 </v>
    </varray>
   </crystal>
   <varray name="positions" >
    <v>       0.00000000       0.00000000       0.39128229 </v>
    <v>       0.50000000       0.00000000       0.39128229 </v>
    <v>       0.00000000       0.50000000       0.39128229 </v>
    <v>       0.50000000       0.50000000       0.39128229 </v>
    <v>       0.16666667       0.16666667       0.46376076 </v>
    <v>       0.66666667       0.16666667       0.46376076 </v>
    <v>       0.16666667       0.66666667       0.46376076 </v>
    <v>       0.66666667       0.66666667       0.46376076 </v>
    <v>       0.84031582       0.32984163       0.53659455 </v>
    <v>       0.32138561       0.33930716       0.53458393 </v>
    <v>       0.84031582       0.82984164       0.53659454 </v>
    <v>       0.32138562       0.83930716       0.53458393 </v>
    <v>       0.99611171       0.00194415       0.60815277 </v>
    <v>       0.50629613       0.99685197       0.61221405 </v>
    <v>       0.99611171       0.50194417       0.60815278 </v>
    <v>       0.50629611       0.49685198       0.61221406 </v>
   </varray>
  </structure>
  <varray name="forces" >
   <v>       0.16278020      -0.09400741       0.18590831 </v>
   <v>      -0.26135487       0.15089231      -1.11676184 </v>
   <v>       0.16278031      -0.09400743       0.18590846 </v>
   <v>      -0.26135517       0.15089210      -1.11676173 </v>
   <v>      -0.32907041       0.19001921      -0.32040412 </v>
   <v>       0.53555388      -0.30920042       0.55212105 </v>
   <v>      -0.32907041       0.19001897      -0.32040419 </v>
   <v>       0.53555441      -0.30920098       0.55212139 </v>
   <v>      -0.20746947       0.11975023       0.14436796 </v>
   <v>       0.12381179      -0.07145470       0.30589458 </v>
   <v>      -0.20746935       0.11974999       0.14436805 </v>
   <v>       0.12381242      -0.07145554       0.30589404 </v>
   <v>       0.05501433      -0.03170976      -0.13554473 </v>
   <v>      -0.07926580       0.04571239       0.38441896 </v>
   <v>       0.05501378      -0.03171059      -0.13554504 </v>
   <v>      -0.07926565       0.04571165       0.38441885 </v>
  </varray>
  <varray name="stress" >
   <v>      19.68828630       3.21502732      -0.18539993 </v>
   <v>       3.21502769      23.38575094       0.10702607 </v>
   <v>      -0.18539954       0.10702608      17.38447803 </v>
  </varray>
  <energy>
   <i name="e_fr_energy">    -38.85112594 </i>
   <i name="e_wo_entrp">    -38.80038127 </i>
   <i name="e_0_energy">    -38.82575360 </i>
  </energy>
  <time name="totalsc">   24.16   24.22</time>
 </calculation>
 <calculation>
  <scstep>
   <time name="dav">    1.31    1.32</time>
   <time name="total">    1.46    1.46</time>
   <energy>
    <i name="alphaZ">    257.16835616 </i>
    <i name="ewald"> 127103.19937702 </i>
    <i name="hartreedc">-145833.15776307 </i>
    <i name="XCdc">    260.23400345 </i>
    <i name="pawpsdc">  19477.48985258 </i>
    <i name="pawaedc"> -19977.67890819 </i>
    <i name="eentropy">     -0.05062209 </i>
    <i name="bandstr">   -739.16457855 </i>
    <i name="atom">  19413.10947982 </i>
    <i name="e_fr_energy">    -38.85080287 </i>
    <i name="e_wo_entrp">    -38.80018079 </i>
    <i name="e_0_energy">    -38.82549183 </i>
   </energy>
  </scstep>
  <scstep>
   <time name="dav">    1.88    1.88</time>
   <time name="total">    2.02    2.03</time>
   <energy>
    <i name="e_fr_energy">    -38.85172977 </i>
    <i name="e_wo_entrp">    -38.80118133 </i>
    <i name="e_0_energy">    -38.82645555 </i>
   </energy>
  </scstep>
  <scstep>
   <time name="dav">    1.61    1.61</time>
   <time name="total">    1.75    1.76</time>
   <energy>
    <i name="e_fr_energy">    -38.85171888 </i>
    <i name="e_wo_entrp">    -38.80105598 </i>
    <i name="e_0_energy">    -38.82638743 </i>
   </energy>
  </scstep>
  <scstep>
   <time name="dav">    1.69    1.70</time>
   <time name="total">    1.84    1.84</time>
   <energy>
    <i name="e_fr_energy">    -38.85171116 </i>
    <i name="e_wo_entrp">    -38.80110263 </i>
    <i name="e_0_energy">    -38.82640690 </i>
   </energy>
  </scstep>
  <scstep>
   <time name="dav">    1.78    1.79</time>
   <time name="total">    1.93    1.93</time>
   <energy>
    <i name="e_fr_energy">    -38.85170692 </i>
    <i name="e_wo_entrp">    -38.80106651 </i>
    <i name="e_0_energy">    -38.82638672 </i>
   </energy>
  </scstep>
  <scstep>
   <time name="dav">    1.40    1.40</time>
   <time name="total">    1.42    1.42</time>
   <energy>
    <i name="alphaZ">    257.16835616 </i>
    <i name="ewald"> 127103.19937702 </i>
    <i name="hartreedc">-145833.21069510 </i>
    <i name="XCdc">    260.23483685 </i>
    <i name="pawpsdc">  19476.30335169 </i>
    <i name="pawaedc"> -19976.47920846 </i>
    <i name="eentropy">     -0.05064297 </i>
    <i name="bandstr">   -739.12656158 </i>
    <i name="atom">  19413.10947982 </i>
    <i name="e_fr_energy">    -38.85170659 </i>
    <i name="e_wo_entrp">    -38.80106362 </i>
    <i name="e_0_energy">    -38.82638510 </i>
   </energy>
  </scstep>
  <structure>
   <crystal>
    <varray name="basis" >
     <v>       5.44472222       0.00000000       0.00000000 </v>
     <v>       2.72236111       4.71526775       0.00000000 </v>
     <v>       0.00000000       0.00000000      30.66839561 </v>
    </varray>
    <i name="volume">    787.35962928 </i>
    <varray name="rec_basis" >
     <v>       0.18366410      -0.10603852       0.00000000 </v>
     <v>       0.00000000       0.21207703       0.00000000 </v>
     <v>       0.00000000       0.00000000       0.03260686 </v>
    </varray>
   </crystal>
   <varray name="positions" >
    <v>       0.00000000       0.00000000       0.39128229 </v>
    <v>       0.50000000       0.00000000       0.39128229 </v>
    <v>       0.00000000       0.50000000       0.39128229 </v>
    <v>       0.50000000       0.50000000       0.39128229 </v>
    <v>       0.16666667       0.16666667       0.46376076 </v>
    <v>       0.66666667       0.16666667       0.46376076 </v>
    <v>       0.16666667       0.66666667       0.46376076 </v>
    <v>       0.66666667       0.66666667       0.46376076 </v>
    <v>       0.84068191       0.32965856       0.53661317 </v>
    <v>       0.32075918       0.33962037       0.53449714 </v>
    <v>       0.84068192       0.82965856       0.53661317 </v>
    <v>       0.32075919       0.83962037       0.53449714 </v>
    <v>       0.99590784       0.00204609       0.60812315 </v>
    <v>       0.50662624       0.99668692       0.61239737 </v>
    <v>       0.99590784       0.50204611       0.60812316 </v>
    <v>       0.50662622       0.49668692       0.61239738 </v>
   </varray>
  </structure>
  <varray name="forces" >
   <v>       0.16098079      -0.09296831       0.18627132 </v>
   <v>      -0.26268769       0.15166202      -1.11790974 </v>
   <v>       0.16098086      -0.09296860       0.18627183 </v>
   <v>      -0.26268728       0.15166182      -1.11791017 </v>
   <v>      -0.33284892       0.19220197      -0.33302994 </v>
   <v>       0.53546532      -0.30914951       0.55222289 </v>
   <v>      -0.33284964       0.19220124      -0.33303015 </v>
   <v>       0.53546555      -0.30914893       0.55222287 </v>
   <v>      -0.23525742       0.13579262       0.14481713 </v>
   <v>       0.15695959      -0.09059761       0.34265890 </v>
   <v>      -0.23525818       0.13579216       0.14481733 </v>
   <v>       0.15695933      -0.09059795       0.34265746 </v>
   <v>       0.06427006      -0.03704827      -0.13245734 </v>
   <v>      -0.08688138       0.05010780       0.35742666 </v>
   <v>       0.06426970      -0.03704948      -0.13245646 </v>
   <v>      -0.08688069       0.05010903       0.35742743 </v>
  </varray>
  <varray name="stress" >
   <v>      19.57406069       3.19179476      -0.22792012 </v>
   <v>       3.19179478      23.24472338       0.13159951 </v>
   <v>      -0.22792054       0.13159949      17.14056487 </v>
  </varray>
  <energy>
   <i name="e_fr_energy">    -38.85170659 </i>
   <i name="e_wo_entrp">    -38.80106362 </i>
   <i name="e_0_energy">    -38.82638510 </i>
  </energy>
  <time name="totalsc">   12.82   12.86</time>
 </calculation>
 <calculation>
  <scstep>
   <time name="dav">    1.31    1.32</time>
   <time name="total">    1.46    1.46</time>
   <energy>
    <i name="alphaZ">    257.16835616 </i>
    <i name="ewald"> 126870.11173942 </i>
    <i name="hartreedc">-145600.74050734 </i>
    <i name="XCdc">    260.14340528 </i>
    <i name="pawpsdc">  19476.30965114 </i>
    <i name="pawaedc"> -19976.48645275 </i>
    <i name="eentropy">     -0.05026464 </i>
    <i name="bandstr">   -738.42883731 </i>
    <i name="atom">  19413.10947982 </i>
    <i name="e_fr_energy">    -38.86343023 </i>
    <i name="e_wo_entrp">    -38.81316559 </i>
    <i name="e_0_energy">    -38.83829791 </i>
   </energy>
  </scstep>
  <scstep>
   <time name="dav">    1.89    1.90</time>
   <time name="total">    2.04    2.04</time>
   <energy>
    <i name="e_fr_energy">    -38.89954463 </i>
    <i name="e_wo_entrp">    -38.85104974 </i>
    <i name="e_0_energy">    -38.87529719 </i>
   </energy>
  </scstep>
  <scstep>
   <time name="dav">    1.61    1.61</time>
   <time name="total">    1.75    1.76</time>
   <energy>
    <i name="e_fr_energy">    -38.89690394 </i>
    <i name="e_wo_entrp">    -38.84716645 </i>
    <i name="e_0_energy">    -38.87203520 </i>
   </energy>
  </scstep>
  <scstep>
   <time name="dav">    1.87    1.87</time>
   <time name="total">    2.01    2.02</time>
   <energy>
    <i name="e_fr_energy">    -38.89665777 </i>
    <i name="e_wo_entrp">    -38.84665649 </i>
    <i name="e_0_energy">    -38.87165713 </i>
   </energy>
  </scstep>
  <scstep>
   <time name="dav">    1.68    1.69</time>
   <time name="total">    1.83    1.83</time>
   <energy>
    <i name="e_fr_energy">    -38.89632477 </i>
    <i name="e_wo_entrp">    -38.84617642 </i>
    <i name="e_0_energy">    -38.87125059 </i>
   </energy>
  </scstep>
  <scstep>
   <time name="dav">    2.06    2.07</time>
   <time name="total">    2.21    2.21</time>
   <energy>
    <i name="e_fr_energy">    -38.89603048 </i>
    <i name="e_wo_entrp">    -38.84579164 </i>
    <i name="e_0_energy">    -38.87091106 </i>
   </energy>
  </scstep>
  <scstep>
   <time name="dav">    1.76    1.76</time>
   <time name="total">    1.91    1.91</time>
   <energy>
    <i name="e_fr_energy">    -38.89600483 </i>
    <i name="e_wo_entrp">    -38.84569850 </i>
    <i name="e_0_energy">    -38.87085167 </i>
   </energy>
  </scstep>
  <scstep>
   <time name="dav">    1.60    1.60</time>
   <time name="total">    1.75    1.75</time>
   <energy>
    <i name="e_fr_energy">    -38.89602670 </i>
    <i name="e_wo_entrp">    -38.84560865 </i>
    <i name="e_0_energy">    -38.87081768 </i>
   </energy>
  </scstep>
  <scstep>
   <time name="dav">    1.56    1.56</time>
   <time name="total">    1.71    1.71</time>
   <energy>
    <i name="e_fr_energy">    -38.89601358 </i>
    <i name="e_wo_entrp">    -38.84568104 </i>
    <i name="e_0_energy">    -38.87084731 </i>
   </energy>
  </scstep>
  <scstep>
   <time name="dav">    1.46    1.46</time>
   <time name="total">    1.61    1.61</time>
   <energy>
    <i name="e_fr_energy">    -38.89600832 </i>
    <i name="e_wo_entrp">    -38.84571137 </i>
    <i name="e_0_energy">    -38.87085984 </i>
   </energy>
  </scstep>
  <scstep>
   <time name="dav">    1.37    1.37</time>
   <time name="total">    1.52    1.52</time>
   <energy>
    <i name="e_fr_energy">    -38.89600874 </i>
    <i name="e_wo_entrp">    -38.84575141 </i>
    <i name="e_0_energy">    -38.87088007 </i>
   </energy>
  </scstep>
  <scstep>
   <time name="dav">    1.13    1.13</time>
   <time name="total">    1.16    1.16</time>
   <energy>
    <i name="alphaZ">    257.16835616 </i>
    <i name="ewald"> 126870.11173942 </i>
    <i name="hartreedc">-145600.97631940 </i>
    <i name="XCdc">    260.14848188 </i>
    <i name="pawpsdc">  19462.99554426 </i>
    <i name="pawaedc"> -19962.96540493 </i>
    <i name="eentropy">     -0.05026512 </i>
    <i name="bandstr">   -738.43762102 </i>
    <i name="atom">  19413.10947982 </i>
    <i name="e_fr_energy">    -38.89600894 </i>
    <i name="e_wo_entrp">    -38.84574382 </i>
    <i name="e_0_energy">    -38.87087638 </i>
   </energy>
  </scstep>
  <structure>
   <crystal>
    <varray name="basis" >
     <v>       5.44472222       0.00000000       0.00000000 </v>
     <v>       2.72236111       4.71526775       0.00000000 </v>
     <v>       0.00000000       0.00000000      30.66839561 </v>
    </varray>
    <i name="volume">    787.35962928 </i>
    <varray name="rec_basis" >
     <v>       0.18366410      -0.10603852       0.00000000 </v>
     <v>       0.00000000       0.21207703       0.00000000 </v>
     <v>       0.00000000       0.00000000       0.03260686 </v>
    </varray>
   </crystal>
   <varray name="positions" >
    <v>       0.00000000       0.00000000       0.39128229 </v>
    <v>       0.50000000       0.00000000       0.39128229 </v>
    <v>       0.00000000       0.50000000       0.39128229 </v>
    <v>       0.50000000       0.50000000       0.39128229 </v>
    <v>       0.16666667       0.16666667       0.46376076 </v>
    <v>       0.66666667       0.16666667       0.46376076 </v>
    <v>       0.16666667       0.66666667       0.46376076 </v>
    <v>       0.66666667       0.66666667       0.46376076 </v>
    <v>       0.83806788       0.33096521       0.53693149 </v>
    <v>       0.32168566       0.33915734       0.53497037 </v>
    <v>       0.83806788       0.83096521       0.53693149 </v>
    <v>       0.32168567       0.83915734       0.53497037 </v>
    <v>       0.99639951       0.00180080       0.60780509 </v>
    <v>       0.50607808       0.99696051       0.61347680 </v>
    <v>       0.99639951       0.50180081       0.60780510 </v>
    <v>       0.50607806       0.49696053       0.61347681 </v>
   </varray>
  </structure>
  <varray name="forces" >
   <v>       0.16255744      -0.09387549       0.18930752 </v>
   <v>      -0.26302177       0.15185526      -1.11885626 </v>
   <v>       0.16255756      -0.09387568       0.18930768 </v>
   <v>      -0.26302174       0.15185516      -1.11885637 </v>
   <v>      -0.32236444       0.18614702      -0.27551781 </v>
   <v>       0.52089315      -0.30073674       0.59484355 </v>
   <v>      -0.32236424       0.18614739      -0.27551760 </v>
   <v>       0.52089319      -0.30073678       0.59484353 </v>
   <v>      -0.16836092       0.09716442       0.11520384 </v>
   <v>       0.11120800      -0.06418035       0.27387989 </v>
   <v>      -0.16836038       0.09716475       0.11520380 </v>
   <v>       0.11120816      -0.06418072       0.27387921 </v>
   <v>       0.03032720      -0.01745343      -0.08099756 </v>
   <v>      -0.07123905       0.04108015       0.30213731 </v>
   <v>       0.03032732      -0.01745403      -0.08099812 </v>
   <v>      -0.07123948       0.04107905       0.30213738 </v>
  </varray>
  <varray name="stress" >
   <v>      18.97516163       3.16114161      -0.34143475 </v>
   <v>       3.16114182      22.61064275       0.19709750 </v>
   <v>      -0.34143466       0.19709752      16.27902116 </v>
  </varray>
  <energy>
   <i name="e_fr_energy">    -38.89600894 </i>
   <i name="e_wo_entrp">    -38.84574382 </i>
   <i name="e_0_energy">    -38.87087638 </i>
  </energy>
  <time name="totalsc">   23.34   23.40</time>
 </calculation>
 <calculation>
  <scstep>
   <time name="dav">    1.32    1.32</time>
   <time name="total">    1.46    1.47</time>
   <energy>
    <i name="alphaZ">    257.16835616 </i>
    <i name="ewald"> 126523.73160370 </i>
    <i name="hartreedc">-145255.49805297 </i>
    <i name="XCdc">    260.01880897 </i>
    <i name="pawpsdc">  19463.02711799 </i>
    <i name="pawaedc"> -19963.00066191 </i>
    <i name="eentropy">     -0.04943048 </i>
    <i name="bandstr">   -737.36950887 </i>
    <i name="atom">  19413.10947982 </i>
    <i name="e_fr_energy">    -38.86228760 </i>
    <i name="e_wo_entrp">    -38.81285712 </i>
    <i name="e_0_energy">    -38.83757236 </i>
   </energy>
  </scstep>
  <scstep>
   <time name="dav">    1.90    1.90</time>
   <time name="total">    2.04    2.05</time>
   <energy>
    <i name="e_fr_energy">    -38.95104577 </i>
    <i name="e_wo_entrp">    -38.90432886 </i>
    <i name="e_0_energy">    -38.92768732 </i>
   </energy>
  </scstep>
  <scstep>
   <time name="dav">    1.64    1.64</time>
   <time name="total">    1.78    1.79</time>
   <energy>
    <i name="e_fr_energy">    -38.94449513 </i>
    <i name="e_wo_entrp">    -38.89576794 </i>
    <i name="e_0_energy">    -38.92013154 </i>
   </energy>
  </scstep>
  <scstep>
   <time name="dav">    1.88    1.88</time>
   <time name="total">    2.02    2.03</time>
   <energy>
    <i name="e_fr_energy">    -38.94393647 </i>
    <i name="e_wo_entrp">    -38.89496591 </i>
    <i name="e_0_energy">    -38.91945119 </i>
   </energy>
  </scstep>
  <scstep>
   <time name="dav">    1.67    1.67</time>
   <time name="total">    1.81    1.82</time>
   <energy>
    <i name="e_fr_energy">    -38.94328673 </i>
    <i name="e_wo_entrp">    -38.89412031 </i>
    <i name="e_0_energy">    -38.91870352 </i>
   </energy>
  </scstep>
  <scstep>
   <time name="dav">    2.02    2.03</time>
   <time name="total">    2.17    2.18</time>
   <energy>
    <i name="e_fr_energy">    -38.94254855 </i>
    <i name="e_wo_entrp">    -38.89306245 </i>
    <i name="e_0_energy">    -38.91780550 </i>
   </energy>
  </scstep>
  <scstep>
   <time name="dav">    1.87    1.87</time>
   <time name="total">    2.02    2.02</time>
   <energy>
    <i name="e_fr_energy">    -38.94242242 </i>
    <i name="e_wo_entrp">    -38.89299740 </i>
    <i name="e_0_energy">    -38.91770991 </i>
   </energy>
  </scstep>
  <scstep>
   <time name="dav">    1.64    1.64</time>
   <time name="total">    1.79    1.79</time>
   <energy>
    <i name="e_fr_energy">    -38.94247895 </i>
    <i name="e_wo_entrp">    -38.89276377 </i>
    <i name="e_0_energy">    -38.91762136 </i>
   </energy>
  </scstep>
  <scstep>
   <time name="dav">    1.60    1.61</time>
   <time name="total">    1.75    1.76</time>
   <energy>
    <i name="e_fr_energy">    -38.94245493 </i>
    <i name="e_wo_entrp">    -38.89290410 </i>
    <i name="e_0_energy">    -38.91767951 </i>
   </energy>
  </scstep>
  <scstep>
   <time name="dav">    1.68    1.69</time>
   <time name="total">    1.83    1.85</time>
   <energy>
    <i name="e_fr_energy">    -38.94244204 </i>
    <i name="e_wo_entrp">    -38.89292270 </i>
    <i name="e_0_energy">    -38.91768237 </i>
   </energy>
  </scstep>
  <scstep>
   <time name="dav">    1.81    1.81</time>
   <time name="total">    1.96    1.96</time>
   <energy>
    <i name="e_fr_energy">    -38.94244195 </i>
    <i name="e_wo_entrp">    -38.89297910 </i>
    <i name="e_0_energy">    -38.91771053 </i>
   </energy>
  </scstep>
  <scstep>
   <time name="dav">    1.21    1.21</time>
   <time name="total">    1.23    1.24</time>
   <energy>
    <i name="alphaZ">    257.16835616 </i>
    <i name="ewald"> 126523.73160370 </i>
    <i name="hartreedc">-145255.88002378 </i>
    <i name="XCdc">    260.02527393 </i>
    <i name="pawpsdc">  19444.55137724 </i>
    <i name="pawaedc"> -19944.23661094 </i>
    <i name="eentropy">     -0.04946436 </i>
    <i name="bandstr">   -737.36243465 </i>
    <i name="atom">  19413.10947982 </i>
    <i name="e_fr_energy">    -38.94244289 </i>
    <i name="e_wo_entrp">    -38.89297853 </i>
    <i name="e_0_energy">    -38.91771071 </i>
   </energy>
  </scstep>
  <structure>
   <crystal>
    <varray name="basis" >
     <v>       5.44472222       0.00000000       0.00000000 </v>
     <v>       2.72236111       4.71526775       0.00000000 </v>
     <v>       0.00000000       0.00000000      30.66839561 </v>
    </varray>
    <i name="volume">    787.35962928 </i>
    <varray name="rec_basis" >
     <v>       0.18366410      -0.10603852       0.00000000 </v>
     <v>       0.00000000       0.21207703       0.00000000 </v>
     <v>       0.00000000       0.00000000       0.03260686 </v>
    </varray>
   </crystal>
   <varray name="positions" >
    <v>       0.00000000       0.00000000       0.39128229 </v>
    <v>       0.50000000       0.00000000       0.39128229 </v>
    <v>       0.00000000       0.50000000       0.39128229 </v>
    <v>       0.50000000       0.50000000       0.39128229 </v>
    <v>       0.16666667       0.16666667       0.46376076 </v>
    <v>       0.66666667       0.16666667       0.46376076 </v>
    <v>       0.16666667       0.66666667       0.46376076 </v>
    <v>       0.66666667       0.66666667       0.46376076 </v>
    <v>       0.83420447       0.33289638       0.53740194 </v>
    <v>       0.32305495       0.33847301       0.53566977 </v>
    <v>       0.83420446       0.83289637       0.53740194 </v>
    <v>       0.32305496       0.83847300       0.53566977 </v>
    <v>       0.99712616       0.00143828       0.60733501 </v>
    <v>       0.50526792       0.99736486       0.61507215 </v>
    <v>       0.99712617       0.50143827       0.60733502 </v>
    <v>       0.50526790       0.49736490       0.61507216 </v>
   </varray>
  </structure>
  <varray name="forces" >
   <v>       0.16210171      -0.09362500       0.18859016 </v>
   <v>      -0.26639450       0.15380327      -1.12416555 </v>
   <v>       0.16210176      -0.09362504       0.18859035 </v>
   <v>      -0.26639457       0.15380319      -1.12416555 </v>
   <v>      -0.31032764       0.17919376      -0.20198915 </v>
   <v>       0.49783163      -0.28742591       0.65118589 </v>
   <v>      -0.31032754       0.17919385      -0.20198919 </v>
   <v>       0.49783133      -0.28742590       0.65118587 </v>
   <v>      -0.07576344       0.04371683       0.07185586 </v>
   <v>       0.04892572      -0.02821675       0.18724149 </v>
   <v>      -0.07576278       0.04371722       0.07185584 </v>
   <v>       0.04892561      -0.02821671       0.18724154 </v>
   <v>      -0.02509399       0.01452079       0.00445312 </v>
   <v>      -0.03127908       0.01803410       0.22282836 </v>
   <v>      -0.02509393       0.01452052       0.00445245 </v>
   <v>      -0.03128028       0.01803178       0.22282853 </v>
  </varray>
  <varray name="stress" >
   <v>      18.00179461       3.15378797      -0.51981642 </v>
   <v>       3.15378819      21.62904952       0.30012133 </v>
   <v>      -0.51981644       0.30012123      15.07133624 </v>
  </varray>
  <energy>
   <i name="e_fr_energy">    -38.94244289 </i>
   <i name="e_wo_entrp">    -38.89297853 </i>
   <i name="e_0_energy">    -38.91771071 </i>
  </energy>
  <time name="totalsc">   24.26   24.33</time>
 </calculation>
 <calculation>
  <scstep>
   <time name="dav">    1.32    1.32</time>
   <time name="total">    1.47    1.47</time>
   <energy>
    <i name="alphaZ">    257.16835616 </i>
    <i name="ewald"> 125824.37266807 </i>
    <i name="hartreedc">-144558.34454034 </i>
    <i name="XCdc">    259.78890872 </i>
    <i name="pawpsdc">  19444.58384017 </i>
    <i name="pawaedc"> -19944.27441398 </i>
    <i name="eentropy">     -0.04696484 </i>
    <i name="bandstr">   -734.92427710 </i>
    <i name="atom">  19413.10947982 </i>
    <i name="e_fr_energy">    -38.56694333 </i>
    <i name="e_wo_entrp">    -38.51997849 </i>
    <i name="e_0_energy">    -38.54346091 </i>
   </energy>
  </scstep>
  <scstep>
   <time name="dav">    1.88    1.89</time>
   <time name="total">    2.03    2.04</time>
   <energy>
    <i name="e_fr_energy">    -39.01119438 </i>
    <i name="e_wo_entrp">    -38.96851330 </i>
    <i name="e_0_energy">    -38.98985384 </i>
   </energy>
  </scstep>
  <scstep>
   <time name="dav">    1.67    1.68</time>
   <time name="total">    1.82    1.82</time>
   <energy>
    <i name="e_fr_energy">    -38.98793478 </i>
    <i name="e_wo_entrp">    -38.94141805 </i>
    <i name="e_0_energy">    -38.96467641 </i>
   </energy>
  </scstep>
  <scstep>
   <time name="dav">    1.83    1.84</time>
   <time name="total">    1.98    1.98</time>
   <energy>
    <i name="e_fr_energy">    -38.98691035 </i>
    <i name="e_wo_entrp">    -38.94075767 </i>
    <i name="e_0_energy">    -38.96383401 </i>
   </energy>
  </scstep>
  <scstep>
   <time name="dav">    1.68    1.68</time>
   <time name="total">    1.82    1.83</time>
   <energy>
    <i name="e_fr_energy">    -38.98580866 </i>
    <i name="e_wo_entrp">    -38.93928945 </i>
    <i name="e_0_energy">    -38.96254906 </i>
   </energy>
  </scstep>
  <scstep>
   <time name="dav">    2.18    2.18</time>
   <time name="total">    2.33    2.33</time>
   <energy>
    <i name="e_fr_energy">    -38.98223679 </i>
    <i name="e_wo_entrp">    -38.93496349 </i>
    <i name="e_0_energy">    -38.95860014 </i>
   </energy>
  </scstep>
  <scstep>
   <time name="dav">    1.98    1.99</time>
   <time name="total">    2.13    2.14</time>
   <energy>
    <i name="e_fr_energy">    -38.98124788 </i>
    <i name="e_wo_entrp">    -38.93432255 </i>
    <i name="e_0_energy">    -38.95778521 </i>
   </energy>
  </scstep>
  <scstep>
   <time name="dav">    1.67    1.67</time>
   <time name="total">    1.82    1.82</time>
   <energy>
    <i name="e_fr_energy">    -38.98137411 </i>
    <i name="e_wo_entrp">    -38.93403969 </i>
    <i name="e_0_energy">    -38.95770690 </i>
   </energy>
  </scstep>
  <scstep>
   <time name="dav">    1.64    1.64</time>
   <time name="total">    1.79    1.79</time>
   <energy>
    <i name="e_fr_energy">    -38.98135494 </i>
    <i name="e_wo_entrp">    -38.93425548 </i>
    <i name="e_0_energy">    -38.95780521 </i>
   </energy>
  </scstep>
  <scstep>
   <time name="dav">    1.62    1.63</time>
   <time name="total">    1.77    1.77</time>
   <energy>
    <i name="e_fr_energy">    -38.98134538 </i>
    <i name="e_wo_entrp">    -38.93424805 </i>
    <i name="e_0_energy">    -38.95779671 </i>
   </energy>
  </scstep>
  <scstep>
   <time name="dav">    1.87    1.88</time>
   <time name="total">    2.02    2.03</time>
   <energy>
    <i name="e_fr_energy">    -38.98134348 </i>
    <i name="e_wo_entrp">    -38.93424300 </i>
    <i name="e_0_energy">    -38.95779324 </i>
   </energy>
  </scstep>
  <scstep>
   <time name="dav">    1.51    1.51</time>
   <time name="total">    1.66    1.66</time>
   <energy>
    <i name="e_fr_energy">    -38.98134609 </i>
    <i name="e_wo_entrp">    -38.93423195 </i>
    <i name="e_0_energy">    -38.95778902 </i>
   </energy>
  </scstep>
  <scstep>
   <time name="dav">    0.99    0.99</time>
   <time name="total">    1.14    1.14</time>
   <energy>
    <i name="e_fr_energy">    -38.98134817 </i>
    <i name="e_wo_entrp">    -38.93422688 </i>
    <i name="e_0_energy">    -38.95778752 </i>
   </energy>
  </scstep>
  <scstep>
   <time name="dav">    0.96    0.96</time>
   <time name="total">    1.11    1.11</time>
   <energy>
    <i name="e_fr_energy">    -38.98135032 </i>
    <i name="e_wo_entrp">    -38.93422030 </i>
    <i name="e_0_energy">    -38.95778531 </i>
   </energy>
  </scstep>
  <scstep>
   <time name="dav">    0.97    0.97</time>
   <time name="total">    1.12    1.12</time>
   <energy>
    <i name="e_fr_energy">    -38.98135170 </i>
    <i name="e_wo_entrp">    -38.93422351 </i>
    <i name="e_0_energy">    -38.95778760 </i>
   </energy>
  </scstep>
  <scstep>
   <time name="dav">    0.97    0.97</time>
   <time name="total">    1.12    1.12</time>
   <energy>
    <i name="e_fr_energy">    -38.98135286 </i>
    <i name="e_wo_entrp">    -38.93422636 </i>
    <i name="e_0_energy">    -38.95778961 </i>
   </energy>
  </scstep>
  <scstep>
   <time name="dav">    0.95    0.96</time>
   <time name="total">    0.98    0.98</time>
   <energy>
    <i name="alphaZ">    257.16835616 </i>
    <i name="ewald"> 125824.37266807 </i>
    <i name="hartreedc">-144559.36961267 </i>
    <i name="XCdc">    259.79726172 </i>
    <i name="pawpsdc">  19412.62315558 </i>
    <i name="pawaedc"> -19911.80403872 </i>
    <i name="eentropy">     -0.04712619 </i>
    <i name="bandstr">   -734.83149698 </i>
    <i name="atom">  19413.10947982 </i>
    <i name="e_fr_energy">    -38.98135321 </i>
    <i name="e_wo_entrp">    -38.93422702 </i>
    <i name="e_0_energy">    -38.95779012 </i>
   </energy>
  </scstep>
  <structure>
   <crystal>
    <varray name="basis" >
     <v>       5.44472222       0.00000000       0.00000000 </v>
     <v>       2.72236111       4.71526775       0.00000000 </v>
     <v>       0.00000000       0.00000000      30.66839561 </v>
    </varray>
    <i name="volume">    787.35962928 </i>
    <varray name="rec_basis" >
     <v>       0.18366410      -0.10603852       0.00000000 </v>
     <v>       0.00000000       0.21207703       0.00000000 </v>
     <v>       0.00000000       0.00000000       0.03260686 </v>
    </varray>
   </crystal>
   <varray name="positions" >
    <v>       0.00000000       0.00000000       0.39128229 </v>
    <v>       0.50000000       0.00000000       0.39128229 </v>
    <v>       0.00000000       0.50000000       0.39128229 </v>
    <v>       0.50000000       0.50000000       0.39128229 </v>
    <v>       0.16666667       0.16666667       0.46376076 </v>
[...]
        <r>  0.0096  0.0010  0.0011  0.0032  0.0034  0.0011  0.0027  0.0005  0.0021 </r>
        <r>  0.0071  0.0024  0.0034  0.0026  0.0024  0.0003  0.0044  0.0006  0.0026 </r>
        <r>  0.0096  0.0010  0.0011  0.0032  0.0034  0.0011  0.0027  0.0005  0.0021 </r>
        <r>  0.0022  0.0116  0.0012  0.0244  0.0058  0.0000  0.0013  0.0000  0.0177 </r>
        <r>  0.0033  0.0070  0.0009  0.0274  0.0085  0.0003  0.0010  0.0001  0.0156 </r>
        <r>  0.0022  0.0116  0.0012  0.0244  0.0058  0.0000  0.0013  0.0000  0.0177 </r>
        <r>  0.0033  0.0070  0.0009  0.0274  0.0085  0.0003  0.0010  0.0001  0.0156 </r>
        <r>  0.0067  0.0075  0.0012  0.0187  0.0068  0.0001  0.0014  0.0001  0.0151 </r>
        <r>  0.0041  0.0089  0.0012  0.0229  0.0073  0.0003  0.0028  0.0002  0.0118 </r>
        <r>  0.0067  0.0075  0.0012  0.0187  0.0068  0.0001  0.0014  0.0001  0.0151 </r>
        <r>  0.0041  0.0089  0.0012  0.0229  0.0073  0.0003  0.0028  0.0002  0.0118 </r>
        <r>  0.0102  0.0014  0.0016  0.0007  0.0024  0.0010  0.0036  0.0002  0.0007 </r>
        <r>  0.0038  0.0006  0.0018  0.0007  0.0019  0.0002  0.0024  0.0002  0.0008 </r>
        <r>  0.0102  0.0014  0.0016  0.0007  0.0024  0.0010  0.0036  0.0002  0.0007 </r>
        <r>  0.0038  0.0006  0.0018  0.0007  0.0019  0.0002  0.0024  0.0002  0.0008 </r>
       </set>
       <set comment="band 95">
        <r>  0.0007  0.0039  0.0002  0.0115  0.0023  0.0014  0.0001  0.0016  0.0077 </r>
        <r>  0.0003  0.0044  0.0006  0.0136  0.0028  0.0001  0.0002  0.0009  0.0068 </r>
        <r>  0.0007  0.0039  0.0002  0.0115  0.0023  0.0014  0.0001  0.0016  0.0077 </r>
        <r>  0.0003  0.0044  0.0006  0.0136  0.0028  0.0001  0.0002  0.0009  0.0068 </r>
        <r>  0.0215  0.0042  0.0003  0.0077  0.0067  0.0002  0.0065  0.0001  0.0076 </r>
        <r>  0.0207  0.0049  0.0006  0.0104  0.0076  0.0002  0.0069  0.0002  0.0065 </r>
        <r>  0.0215  0.0042  0.0003  0.0077  0.0067  0.0002  0.0065  0.0001  0.0076 </r>
        <r>  0.0207  0.0049  0.0006  0.0104  0.0076  0.0002  0.0069  0.0002  0.0065 </r>
        <r>  0.0120  0.0072  0.0002  0.0117  0.0053  0.0002  0.0067  0.0001  0.0094 </r>
        <r>  0.0191  0.0044  0.0006  0.0146  0.0080  0.0001  0.0037  0.0001  0.0088 </r>
        <r>  0.0120  0.0072  0.0002  0.0117  0.0053  0.0002  0.0067  0.0001  0.0094 </r>
        <r>  0.0191  0.0044  0.0006  0.0146  0.0080  0.0001  0.0037  0.0001  0.0088 </r>
        <r>  0.0027  0.0046  0.0002  0.0101  0.0023  0.0010  0.0008  0.0012  0.0053 </r>
        <r>  0.0008  0.0025  0.0007  0.0085  0.0026  0.0002  0.0007  0.0010  0.0051 </r>
        <r>  0.0027  0.0046  0.0002  0.0101  0.0023  0.0010  0.0008  0.0012  0.0053 </r>
        <r>  0.0008  0.0025  0.0007  0.0085  0.0026  0.0002  0.0007  0.0010  0.0051 </r>
       </set>
       <set comment="band 96">
        <r>  0.0021  0.0090  0.0009  0.0208  0.0033  0.0003  0.0004  0.0003  0.0116 </r>
        <r>  0.0017  0.0053  0.0012  0.0227  0.0053  0.0010  0.0004  0.0012  0.0111 </r>
        <r>  0.0021  0.0090  0.0009  0.0208  0.0033  0.0003  0.0004  0.0003  0.0116 </r>
        <r>  0.0017  0.0053  0.0012  0.0227  0.0053  0.0010  0.0004  0.0012  0.0111 </r>
        <r>  0.0074  0.0030  0.0021  0.0003  0.0023  0.0018  0.0033  0.0008  0.0012 </r>
        <r>  0.0110  0.0003  0.0058  0.0013  0.0037  0.0001  0.0008  0.0004  0.0011 </r>
        <r>  0.0074  0.0030  0.0021  0.0003  0.0023  0.0018  0.0033  0.0008  0.0012 </r>
        <r>  0.0110  0.0003  0.0058  0.0013  0.0037  0.0001  0.0008  0.0004  0.0011 </r>
        <r>  0.0090  0.0036  0.0058  0.0002  0.0026  0.0002  0.0046  0.0008  0.0017 </r>
        <r>  0.0151  0.0004  0.0023  0.0016  0.0044  0.0011  0.0013  0.0003  0.0010 </r>
        <r>  0.0090  0.0036  0.0058  0.0002  0.0026  0.0002  0.0046  0.0008  0.0017 </r>
        <r>  0.0151  0.0004  0.0023  0.0016  0.0044  0.0011  0.0013  0.0003  0.0010 </r>
        <r>  0.0016  0.0123  0.0001  0.0264  0.0044  0.0008  0.0004  0.0006  0.0129 </r>
        <r>  0.0009  0.0065  0.0005  0.0238  0.0056  0.0001  0.0004  0.0014  0.0117 </r>
        <r>  0.0016  0.0123  0.0001  0.0264  0.0044  0.0008  0.0004  0.0006  0.0129 </r>
        <r>  0.0009  0.0065  0.0005  0.0238  0.0056  0.0001  0.0004  0.0014  0.0117 </r>
       </set>
       <set comment="band 97">
        <r>  0.0176  0.0071  0.0015  0.0086  0.0062  0.0016  0.0026  0.0002  0.0069 </r>
        <r>  0.0166  0.0050  0.0026  0.0118  0.0082  0.0009  0.0025  0.0004  0.0051 </r>
        <r>  0.0176  0.0071  0.0015  0.0086  0.0062  0.0016  0.0026  0.0002  0.0069 </r>
        <r>  0.0166  0.0050  0.0026  0.0118  0.0082  0.0009  0.0025  0.0004  0.0051 </r>
        <r>  0.0039  0.0038  0.0121  0.0100  0.0018  0.0010  0.0003  0.0012  0.0047 </r>
        <r>  0.0019  0.0033  0.0035  0.0107  0.0022  0.0043  0.0006  0.0012  0.0053 </r>
        <r>  0.0039  0.0038  0.0121  0.0100  0.0018  0.0010  0.0003  0.0012  0.0047 </r>
        <r>  0.0019  0.0033  0.0035  0.0107  0.0022  0.0043  0.0006  0.0012  0.0053 </r>
        <r>  0.0008  0.0038  0.0083  0.0093  0.0018  0.0022  0.0003  0.0015  0.0052 </r>
        <r>  0.0016  0.0043  0.0038  0.0112  0.0025  0.0026  0.0001  0.0013  0.0042 </r>
        <r>  0.0008  0.0038  0.0083  0.0093  0.0018  0.0022  0.0003  0.0015  0.0052 </r>
        <r>  0.0016  0.0043  0.0038  0.0112  0.0025  0.0026  0.0001  0.0013  0.0042 </r>
        <r>  0.0168  0.0071  0.0021  0.0075  0.0051  0.0007  0.0024  0.0003  0.0043 </r>
        <r>  0.0114  0.0034  0.0012  0.0078  0.0057  0.0009  0.0019  0.0001  0.0037 </r>
        <r>  0.0168  0.0071  0.0021  0.0075  0.0051  0.0007  0.0024  0.0003  0.0043 </r>
        <r>  0.0114  0.0034  0.0012  0.0078  0.0057  0.0009  0.0019  0.0001  0.0037 </r>
       </set>
       <set comment="band 98">
        <r>  0.0000  0.0001  0.0200  0.0000  0.0001  0.0002  0.0001  0.0067  0.0000 </r>
        <r>  0.0003  0.0001  0.0144  0.0000  0.0002  0.0006  0.0000  0.0106  0.0000 </r>
        <r>  0.0000  0.0001  0.0200  0.0000  0.0001  0.0002  0.0001  0.0067  0.0000 </r>
        <r>  0.0003  0.0001  0.0144  0.0000  0.0002  0.0006  0.0000  0.0106  0.0000 </r>
        <r>  0.0000  0.0001  0.0168  0.0002  0.0004  0.0002  0.0003  0.0075  0.0001 </r>
        <r>  0.0011  0.0004  0.0150  0.0002  0.0006  0.0004  0.0004  0.0103  0.0000 </r>
        <r>  0.0000  0.0001  0.0168  0.0002  0.0004  0.0002  0.0003  0.0075  0.0001 </r>
        <r>  0.0011  0.0004  0.0150  0.0002  0.0006  0.0004  0.0004  0.0103  0.0000 </r>
        <r>  0.0013  0.0005  0.0172  0.0003  0.0005  0.0001  0.0001  0.0064  0.0000 </r>
        <r>  0.0004  0.0001  0.0145  0.0001  0.0004  0.0003  0.0011  0.0096  0.0001 </r>
        <r>  0.0013  0.0005  0.0172  0.0003  0.0005  0.0001  0.0001  0.0064  0.0000 </r>
        <r>  0.0004  0.0001  0.0145  0.0001  0.0004  0.0003  0.0011  0.0096  0.0001 </r>
        <r>  0.0001  0.0003  0.0147  0.0010  0.0002  0.0001  0.0002  0.0052  0.0002 </r>
        <r>  0.0000  0.0003  0.0212  0.0006  0.0001  0.0001  0.0008  0.0074  0.0001 </r>
        <r>  0.0001  0.0003  0.0147  0.0010  0.0002  0.0001  0.0002  0.0052  0.0002 </r>
        <r>  0.0000  0.0003  0.0212  0.0006  0.0001  0.0001  0.0008  0.0074  0.0001 </r>
       </set>
       <set comment="band 99">
        <r>  0.0015  0.0000  0.0166  0.0006  0.0000  0.0066  0.0002  0.0011  0.0000 </r>
        <r>  0.0007  0.0003  0.0144  0.0003  0.0000  0.0067  0.0003  0.0010  0.0009 </r>
        <r>  0.0015  0.0000  0.0167  0.0006  0.0000  0.0066  0.0002  0.0011  0.0000 </r>
        <r>  0.0007  0.0003  0.0144  0.0003  0.0000  0.0067  0.0003  0.0010  0.0009 </r>
        <r>  0.0013  0.0003  0.0127  0.0003  0.0000  0.0076  0.0001  0.0010  0.0009 </r>
        <r>  0.0000  0.0001  0.0169  0.0010  0.0002  0.0072  0.0000  0.0021  0.0004 </r>
        <r>  0.0013  0.0003  0.0126  0.0003  0.0000  0.0076  0.0001  0.0010  0.0009 </r>
        <r>  0.0000  0.0001  0.0169  0.0010  0.0002  0.0072  0.0000  0.0021  0.0004 </r>
        <r>  0.0038  0.0003  0.0104  0.0010  0.0005  0.0090  0.0003  0.0013  0.0009 </r>
        <r>  0.0012  0.0005  0.0201  0.0013  0.0005  0.0059  0.0001  0.0016  0.0014 </r>
        <r>  0.0038  0.0003  0.0104  0.0010  0.0005  0.0090  0.0003  0.0013  0.0009 </r>
        <r>  0.0012  0.0005  0.0201  0.0013  0.0005  0.0059  0.0001  0.0016  0.0014 </r>
        <r>  0.0041  0.0008  0.0126  0.0020  0.0003  0.0060  0.0003  0.0003  0.0015 </r>
        <r>  0.0031  0.0002  0.0164  0.0017  0.0006  0.0072  0.0001  0.0021  0.0020 </r>
        <r>  0.0041  0.0008  0.0126  0.0020  0.0003  0.0060  0.0003  0.0003  0.0015 </r>
        <r>  0.0031  0.0002  0.0164  0.0017  0.0006  0.0072  0.0001  0.0021  0.0020 </r>
       </set>
       <set comment="band 100">
        <r>  0.0042  0.0008  0.0001  0.0004  0.0001  0.0002  0.0027  0.0003  0.0000 </r>
        <r>  0.0047  0.0005  0.0027  0.0001  0.0000  0.0001  0.0044  0.0001  0.0000 </r>
        <r>  0.0042  0.0008  0.0001  0.0004  0.0001  0.0002  0.0027  0.0003  0.0000 </r>
        <r>  0.0047  0.0005  0.0027  0.0001  0.0000  0.0001  0.0044  0.0001  0.0000 </r>
        <r>  0.0068  0.0011  0.0006  0.0005  0.0001  0.0001  0.0035  0.0004  0.0000 </r>
        <r>  0.0053  0.0005  0.0018  0.0001  0.0000  0.0000  0.0049  0.0004  0.0000 </r>
        <r>  0.0068  0.0011  0.0006  0.0005  0.0001  0.0001  0.0035  0.0004  0.0000 </r>
        <r>  0.0053  0.0005  0.0018  0.0001  0.0000  0.0000  0.0049  0.0004  0.0000 </r>
        <r>  0.0050  0.0008  0.0015  0.0007  0.0000  0.0000  0.0036  0.0005  0.0000 </r>
        <r>  0.0081  0.0010  0.0010  0.0002  0.0001  0.0000  0.0056  0.0005  0.0000 </r>
        <r>  0.0050  0.0008  0.0015  0.0007  0.0000  0.0000  0.0036  0.0005  0.0000 </r>
        <r>  0.0081  0.0010  0.0010  0.0002  0.0001  0.0000  0.0056  0.0005  0.0000 </r>
        <r>  0.0056  0.0010  0.0017  0.0005  0.0002  0.0000  0.0028  0.0005  0.0000 </r>
        <r>  0.0052  0.0002  0.0006  0.0000  0.0000  0.0008  0.0041  0.0015  0.0000 </r>
        <r>  0.0056  0.0010  0.0017  0.0005  0.0002  0.0000  0.0028  0.0005  0.0000 </r>
        <r>  0.0052  0.0002  0.0006  0.0000  0.0000  0.0008  0.0041  0.0015  0.0000 </r>
       </set>
       <set comment="band 101">
        <r>  0.0169  0.0054  0.0004  0.0120  0.0028  0.0006  0.0008  0.0006  0.0046 </r>
        <r>  0.0124  0.0043  0.0003  0.0131  0.0034  0.0001  0.0011  0.0008  0.0047 </r>
        <r>  0.0169  0.0054  0.0004  0.0120  0.0028  0.0006  0.0008  0.0006  0.0046 </r>
        <r>  0.0124  0.0043  0.0003  0.0131  0.0034  0.0001  0.0011  0.0008  0.0047 </r>
        <r>  0.0145  0.0051  0.0030  0.0011  0.0042  0.0035  0.0005  0.0062  0.0016 </r>
        <r>  0.0133  0.0030  0.0052  0.0021  0.0054  0.0018  0.0005  0.0060  0.0015 </r>
        <r>  0.0145  0.0051  0.0030  0.0011  0.0042  0.0035  0.0005  0.0062  0.0016 </r>
        <r>  0.0133  0.0030  0.0052  0.0021  0.0054  0.0018  0.0005  0.0060  0.0015 </r>
        <r>  0.0195  0.0028  0.0031  0.0010  0.0040  0.0030  0.0002  0.0050  0.0013 </r>
        <r>  0.0119  0.0037  0.0064  0.0014  0.0046  0.0018  0.0014  0.0052  0.0016 </r>
        <r>  0.0195  0.0028  0.0031  0.0010  0.0040  0.0030  0.0002  0.0050  0.0013 </r>
        <r>  0.0119  0.0037  0.0064  0.0014  0.0046  0.0018  0.0014  0.0052  0.0016 </r>
        <r>  0.0165  0.0056  0.0001  0.0097  0.0025  0.0006  0.0008  0.0012  0.0036 </r>
        <r>  0.0111  0.0037  0.0001  0.0136  0.0039  0.0000  0.0011  0.0000  0.0050 </r>
        <r>  0.0165  0.0056  0.0001  0.0097  0.0025  0.0006  0.0008  0.0012  0.0036 </r>
        <r>  0.0111  0.0037  0.0001  0.0136  0.0039  0.0000  0.0011  0.0000  0.0050 </r>
       </set>
       <set comment="band 102">
        <r>  0.0015  0.0002  0.0006  0.0000  0.0000  0.0002  0.0011  0.0003  0.0000 </r>
        <r>  0.0011  0.0002  0.0024  0.0001  0.0000  0.0002  0.0009  0.0000  0.0000 </r>
        <r>  0.0015  0.0002  0.0006  0.0000  0.0000  0.0002  0.0011  0.0003  0.0000 </r>
        <r>  0.0011  0.0002  0.0024  0.0001  0.0000  0.0002  0.0009  0.0000  0.0000 </r>
        <r>  0.0003  0.0000  0.0018  0.0000  0.0000  0.0003  0.0002  0.0002  0.0000 </r>
        <r>  0.0003  0.0000  0.0022  0.0000  0.0000  0.0003  0.0002  0.0001  0.0000 </r>
        <r>  0.0003  0.0000  0.0018  0.0000  0.0000  0.0003  0.0002  0.0002  0.0000 </r>
        <r>  0.0003  0.0000  0.0022  0.0000  0.0000  0.0003  0.0002  0.0001  0.0000 </r>
        <r>  0.0000  0.0000  0.0016  0.0000  0.0000  0.0003  0.0000  0.0002  0.0000 </r>
        <r>  0.0002  0.0000  0.0027  0.0000  0.0000  0.0003  0.0001  0.0000  0.0000 </r>
        <r>  0.0000  0.0000  0.0016  0.0000  0.0000  0.0003  0.0000  0.0002  0.0000 </r>
        <r>  0.0002  0.0000  0.0027  0.0000  0.0000  0.0003  0.0001  0.0000  0.0000 </r>
        <r>  0.0006  0.0001  0.0012  0.0000  0.0000  0.0004  0.0004  0.0003  0.0000 </r>
        <r>  0.0020  0.0002  0.0011  0.0000  0.0000  0.0000  0.0013  0.0000  0.0000 </r>
        <r>  0.0006  0.0001  0.0012  0.0000  0.0000  0.0004  0.0004  0.0003  0.0000 </r>
        <r>  0.0020  0.0002  0.0011  0.0000  0.0000  0.0000  0.0013  0.0000  0.0000 </r>
       </set>
       <set comment="band 103">
        <r>  0.0325  0.0098  0.0042  0.0025  0.0062  0.0001  0.0009  0.0001  0.0026 </r>
        <r>  0.0288  0.0038  0.0020  0.0050  0.0090  0.0003  0.0003  0.0002  0.0033 </r>
        <r>  0.0325  0.0098  0.0042  0.0025  0.0062  0.0001  0.0009  0.0001  0.0026 </r>
        <r>  0.0288  0.0038  0.0020  0.0050  0.0090  0.0003  0.0003  0.0002  0.0033 </r>
        <r>  0.0008  0.0010  0.0027  0.0036  0.0004  0.0007  0.0000  0.0026  0.0011 </r>
        <r>  0.0002  0.0016  0.0015  0.0041  0.0007  0.0019  0.0001  0.0049  0.0013 </r>
        <r>  0.0008  0.0010  0.0027  0.0036  0.0004  0.0007  0.0000  0.0026  0.0011 </r>
        <r>  0.0002  0.0016  0.0015  0.0041  0.0007  0.0019  0.0001  0.0049  0.0013 </r>
        <r>  0.0008  0.0022  0.0021  0.0035  0.0006  0.0010  0.0000  0.0026  0.0010 </r>
        <r>  0.0005  0.0016  0.0012  0.0036  0.0010  0.0017  0.0000  0.0047  0.0012 </r>
        <r>  0.0008  0.0022  0.0021  0.0035  0.0006  0.0010  0.0000  0.0026  0.0010 </r>
        <r>  0.0005  0.0016  0.0012  0.0036  0.0010  0.0017  0.0000  0.0047  0.0012 </r>
        <r>  0.0373  0.0076  0.0053  0.0020  0.0064  0.0002  0.0004  0.0002  0.0023 </r>
        <r>  0.0329  0.0059  0.0014  0.0049  0.0095  0.0000  0.0017  0.0000  0.0035 </r>
        <r>  0.0373  0.0076  0.0053  0.0020  0.0064  0.0002  0.0004  0.0002  0.0023 </r>
        <r>  0.0329  0.0059  0.0014  0.0049  0.0095  0.0000  0.0017  0.0000  0.0035 </r>
       </set>
       <set comment="band 104">
        <r>  0.0009  0.0001  0.0002  0.0000  0.0000  0.0001  0.0006  0.0001  0.0000 </r>
        <r>  0.0004  0.0001  0.0011  0.0001  0.0000  0.0001  0.0004  0.0000  0.0000 </r>
        <r>  0.0009  0.0001  0.0002  0.0000  0.0000  0.0001  0.0006  0.0001  0.0000 </r>
        <r>  0.0004  0.0001  0.0011  0.0001  0.0000  0.0001  0.0004  0.0000  0.0000 </r>
        <r>  0.0002  0.0000  0.0009  0.0000  0.0000  0.0001  0.0001  0.0001  0.0000 </r>
        <r>  0.0001  0.0000  0.0012  0.0000  0.0000  0.0002  0.0001  0.0000  0.0000 </r>
        <r>  0.0002  0.0000  0.0009  0.0000  0.0000  0.0001  0.0001  0.0001  0.0000 </r>
        <r>  0.0001  0.0000  0.0012  0.0000  0.0000  0.0002  0.0001  0.0000  0.0000 </r>
        <r>  0.0001  0.0000  0.0009  0.0000  0.0000  0.0001  0.0000  0.0001  0.0000 </r>
        <r>  0.0002  0.0000  0.0012  0.0000  0.0000  0.0002  0.0001  0.0000  0.0000 </r>
        <r>  0.0001  0.0000  0.0009  0.0000  0.0000  0.0001  0.0000  0.0001  0.0000 </r>
        <r>  0.0002  0.0000  0.0012  0.0000  0.0000  0.0002  0.0001  0.0000  0.0000 </r>
        <r>  0.0004  0.0001  0.0006  0.0000  0.0000  0.0001  0.0003  0.0001  0.0000 </r>
        <r>  0.0011  0.0001  0.0002  0.0000  0.0000  0.0000  0.0008  0.0000  0.0000 </r>
        <r>  0.0004  0.0001  0.0006  0.0000  0.0000  0.0001  0.0003  0.0001  0.0000 </r>
        <r>  0.0011  0.0001  0.0002  0.0000  0.0000  0.0000  0.0008  0.0000  0.0000 </r>
       </set>
       <set comment="band 105">
        <r>  0.0014  0.0003  0.0016  0.0001  0.0000  0.0002  0.0011  0.0001  0.0000 </r>
        <r>  0.0013  0.0001  0.0021  0.0000  0.0000  0.0002  0.0013  0.0000  0.0000 </r>
        <r>  0.0016  0.0002  0.0016  0.0001  0.0000  0.0002  0.0010  0.0001  0.0000 </r>
        <r>  0.0011  0.0002  0.0020  0.0001  0.0000  0.0002  0.0013  0.0000  0.0000 </r>
        <r>  0.0043  0.0004  0.0003  0.0002  0.0001  0.0001  0.0021  0.0001  0.0000 </r>
        <r>  0.0021  0.0004  0.0008  0.0001  0.0000  0.0001  0.0026  0.0000  0.0000 </r>
        <r>  0.0036  0.0007  0.0003  0.0002  0.0000  0.0001  0.0022  0.0001  0.0000 </r>
        <r>  0.0025  0.0002  0.0008  0.0001  0.0000  0.0001  0.0023  0.0000  0.0000 </r>
        <r>  0.0031  0.0004  0.0005  0.0004  0.0000  0.0000  0.0018  0.0001  0.0000 </r>
        <r>  0.0036  0.0005  0.0002  0.0001  0.0000  0.0000  0.0035  0.0001  0.0000 </r>
        <r>  0.0026  0.0006  0.0004  0.0005  0.0000  0.0000  0.0019  0.0001  0.0000 </r>
        <r>  0.0041  0.0003  0.0002  0.0000  0.0000  0.0000  0.0032  0.0001  0.0000 </r>
        <r>  0.0023  0.0005  0.0015  0.0003  0.0001  0.0000  0.0010  0.0000  0.0000 </r>
        <r>  0.0006  0.0000  0.0029  0.0000  0.0000  0.0006  0.0011  0.0003  0.0000 </r>
        <r>  0.0020  0.0006  0.0014  0.0004  0.0001  0.0001  0.0011  0.0000  0.0000 </r>
        <r>  0.0008  0.0000  0.0030  0.0000  0.0000  0.0006  0.0010  0.0003  0.0000 </r>
       </set>
      </set>
     </set>
    </set>
   </array>
  </projected>
 </calculation>
 <structure name="finalpos" >
  <crystal>
   <varray name="basis" >
    <v>       5.44472222       0.00000000       0.00000000 </v>
    <v>       2.72236111       4.71526775       0.00000000 </v>
    <v>       0.00000000       0.00000000      30.66839561 </v>
   </varray>
   <i name="volume">    787.35962928 </i>
   <varray name="rec_basis" >
    <v>       0.18366410      -0.10603852       0.00000000 </v>
    <v>       0.00000000       0.21207703       0.00000000 </v>
    <v>       0.00000000       0.00000000       0.03260686 </v>
   </varray>
  </crystal>
  <varray name="positions" >
   <v>       0.00000000       0.00000000       0.39128229 </v>
   <v>       0.50000000       0.00000000       0.39128229 </v>
   <v>       0.00000000       0.50000000       0.39128229 </v>
   <v>       0.50000000       0.50000000       0.39128229 </v>
   <v>       0.16666667       0.16666667       0.46376076 </v>
   <v>       0.66666667       0.16666667       0.46376076 </v>
   <v>       0.16666667       0.66666667       0.46376076 </v>
   <v>       0.66666667       0.66666667       0.46376076 </v>
   <v>       0.82162339       0.33917873       0.53815631 </v>
   <v>       0.31702213       0.34150798       0.53857939 </v>
   <v>       0.82162717       0.83917686       0.53815637 </v>
   <v>       0.31702209       0.84149785       0.53857941 </v>
   <v>       0.94966361       0.02514258       0.60777171 </v>
   <v>       0.45726387       0.02141846       0.62163254 </v>
   <v>       0.94966360       0.52514186       0.60777173 </v>
   <v>       0.45726133       0.52141988       0.62163443 </v>
  </varray>
  <varray name="selective"  type="logical" >
   <v type="logical" >  F  F  F </v>
   <v type="logical" >  F  F  F </v>
   <v type="logical" >  F  F  F </v>
   <v type="logical" >  F  F  F </v>
   <v type="logical" >  F  F  F </v>
   <v type="logical" >  F  F  F </v>
   <v type="logical" >  F  F  F </v>
   <v type="logical" >  F  F  F </v>
   <v type="logical" >  T  T  T </v>
   <v type="logical" >  T  T  T </v>
   <v type="logical" >  T  T  T </v>
   <v type="logical" >  T  T  T </v>
   <v type="logical" >  T  T  T </v>
   <v type="logical" >  T  T  T </v>
   <v type="logical" >  T  T  T </v>
   <v type="logical" >  T  T  T </v>
  </varray>
  <nose>
   <v>      -3.00000000       0.00000000       0.00010000       0.00010000 </v>
  </nose>
 </structure>
</modeling>
