Cu-Ag alloy CO adsorption (RPBE, matches
            1
     5.444722    0.000000    0.000000
     2.722361    4.715268    0.000000
     0.000000    0.000000   30.668396
   Cu   Ag   Cu   Ag   Cu   Ag   Cu   Ag   Cu   Ag   Cu   Ag   Cu   Ag   Cu   Ag
     1     1     1     1     1     1     1     1     1     1     1     1     1     1     1     1
Direct configuration=     1
   0.00000000  0.00000000  0.39128229
   0.50000000  0.00000000  0.39128229
   0.00000000  0.50000000  0.39128229
   0.50000000  0.50000000  0.39128229
   0.16666667  0.16666667  0.46376076
   0.66666667  0.16666667  0.46376076
   0.16666667  0.66666667  0.46376076
   0.66666667  0.66666667  0.46376076
   0.83333333  0.33333333  0.53623924
   0.33333333  0.33333333  0.53623924
   0.83333333  0.83333333  0.53623924
   0.33333333  0.83333333  0.53623924
   0.00000000  0.00000000  0.60871771
   0.50000000  0.00000000  0.60871771
   0.00000000  0.50000000  0.60871771
   0.50000000  0.50000000  0.60871771
Direct configuration=     2
   0.00000000  0.00000000  0.39128229
   0.50000000  0.00000000  0.39128229
   0.00000000  0.50000000  0.39128229
   0.50000000  0.50000000  0.39128229
   0.16666667  0.16666667  0.46376076
   0.66666667  0.16666667  0.46376076
   0.16666667  0.66666667  0.46376076
   0.66666667  0.66666667  0.46376076
   0.83681288  0.33159333  0.53641630
   0.32737948  0.33631024  0.53541435
   0.83681288  0.83159333  0.53641630
   0.32737948  0.83631024  0.53541436
   0.99806237  0.00096882  0.60843619
   0.50313752  0.99843126  0.61046003
   0.99806237  0.50096883  0.60843619
   0.50313751  0.49843126  0.61046003
Direct configuration=     3
   0.00000000  0.00000000  0.39128229
   0.50000000  0.00000000  0.39128229
   0.00000000  0.50000000  0.39128229
   0.50000000  0.50000000  0.39128229
   0.16666667  0.16666667  0.46376076
   0.66666667  0.16666667  0.46376076
   0.16666667  0.66666667  0.46376076
   0.66666667  0.66666667  0.46376076
   0.84031582  0.32984163  0.53659455
   0.32138561  0.33930716  0.53458393
   0.84031582  0.82984164  0.53659454
   0.32138562  0.83930716  0.53458393
   0.99611171  0.00194415  0.60815277
   0.50629613  0.99685197  0.61221405
   0.99611171  0.50194417  0.60815278
   0.50629611  0.49685198  0.61221406
Direct configuration=     4
   0.00000000  0.00000000  0.39128229
   0.50000000  0.00000000  0.39128229
   0.00000000  0.50000000  0.39128229
   0.50000000  0.50000000  0.39128229
   0.16666667  0.16666667  0.46376076
   0.66666667  0.16666667  0.46376076
   0.16666667  0.66666667  0.46376076
   0.66666667  0.66666667  0.46376076
   0.84068191  0.32965856  0.53661317
   0.32075918  0.33962037  0.53449714
   0.84068192  0.82965856  0.53661317
   0.32075919  0.83962037  0.53449714
   0.99590784  0.00204609  0.60812315
   0.50662624  0.99668692  0.61239737
   0.99590784  0.50204611  0.60812316
   0.50662622  0.49668692  0.61239738
Direct configuration=     5
   0.00000000  0.00000000  0.39128229
   0.50000000  0.00000000  0.39128229
   0.00000000  0.50000000  0.39128229
   0.50000000  0.50000000  0.39128229
   0.16666667  0.16666667  0.46376076
   0.66666667  0.16666667  0.46376076
   0.16666667  0.66666667  0.46376076
   0.66666667  0.66666667  0.46376076
   0.83806788  0.33096521  0.53693149
   0.32168566  0.33915734  0.53497037
   0.83806788  0.83096521  0.53693149
   0.32168567  0.83915734  0.53497037
   0.99639951  0.00180080  0.60780509
   0.50607808  0.99696051  0.61347680
   0.99639951  0.50180081  0.60780510
   0.50607806  0.49696053  0.61347681
Direct configuration=     6
   0.00000000  0.00000000  0.39128229
   0.50000000  0.00000000  0.39128229
   0.00000000  0.50000000  0.39128229
   0.50000000  0.50000000  0.39128229
   0.16666667  0.16666667  0.46376076
   0.66666667  0.16666667  0.46376076
   0.16666667  0.66666667  0.46376076
   0.66666667  0.66666667  0.46376076
   0.83420447  0.33289638  0.53740194
   0.32305495  0.33847301  0.53566977
   0.83420446  0.83289637  0.53740194
   0.32305496  0.83847300  0.53566977
   0.99712616  0.00143828  0.60733501
   0.50526792  0.99736486  0.61507215
   0.99712617  0.50143827  0.60733502
   0.50526790  0.49736490  0.61507216
Direct configuration=     7
   0.00000000  0.00000000  0.39128229
   0.50000000  0.00000000  0.39128229
   0.00000000  0.50000000  0.39128229
   0.50000000  0.50000000  0.39128229
   0.16666667  0.16666667  0.46376076
   0.66666667  0.16666667  0.46376076
   0.16666667  0.66666667  0.46376076
   0.66666667  0.66666667  0.46376076
   0.82647766  0.33675871  0.53834285
   0.32579354  0.33710435  0.53706858
   0.82647763  0.83675869  0.53834285
   0.32579355  0.83710432  0.53706857
   0.99857946  0.00071324  0.60639486
   0.50364761  0.99817355  0.61826285
   0.99857948  0.50071319  0.60639487
   0.50364758  0.49817364  0.61826287
Direct configuration=     8
   0.00000000  0.00000000  0.39128229
   0.50000000  0.00000000  0.39128229
   0.00000000  0.50000000  0.39128229
   0.50000000  0.50000000  0.39128229
   0.16666667  0.16666667  0.46376076
   0.66666667  0.16666667  0.46376076
   0.16666667  0.66666667  0.46376076
   0.66666667  0.66666667  0.46376076
   0.82775414  0.33612084  0.53849281
   0.32485457  0.33757364  0.53730516
   0.82775408  0.83612084  0.53849282
   0.32485456  0.83757374  0.53730515
   0.99520966  0.00239809  0.60681584
   0.50305576  0.99846931  0.61927067
   0.99520969  0.50239813  0.60681585
   0.50305573  0.49846932  0.61927072
Direct configuration=     9
   0.00000000  0.00000000  0.39128229
   0.50000000  0.00000000  0.39128229
   0.00000000  0.50000000  0.39128229
   0.50000000  0.50000000  0.39128229
   0.16666667  0.16666667  0.46376076
   0.66666667  0.16666667  0.46376076
   0.16666667  0.66666667  0.46376076
   0.66666667  0.66666667  0.46376076
   0.82835281  0.33582168  0.53856315
   0.32441421  0.33779374  0.53741612
   0.82835272  0.83582170  0.53856315
   0.32441418  0.83779390  0.53741610
   0.99362926  0.00318826  0.60701327
   0.50277819  0.99860802  0.61974332
   0.99362929  0.50318835  0.60701329
   0.50277816  0.49860799  0.61974340
Direct configuration=    10
   0.00000000  0.00000000  0.39128229
   0.50000000  0.00000000  0.39128229
   0.00000000  0.50000000  0.39128229
   0.50000000  0.50000000  0.39128229
   0.16666667  0.16666667  0.46376076
   0.66666667  0.16666667  0.46376076
   0.16666667  0.66666667  0.46376076
   0.66666667  0.66666667  0.46376076
   0.82955013  0.33522337  0.53870381
   0.32353348  0.33823393  0.53763802
   0.82955001  0.83522341  0.53870382
   0.32353343  0.83823420  0.53763801
   0.99046846  0.00476861  0.60740814
   0.50222305  0.99888544  0.62068863
   0.99046850  0.50476879  0.60740816
   0.50222302  0.49888533  0.62068874
Direct configuration=    11
   0.00000000  0.00000000  0.39128229
   0.50000000  0.00000000  0.39128229
   0.00000000  0.50000000  0.39128229
   0.50000000  0.50000000  0.39128229
   0.16666667  0.16666667  0.46376076
   0.66666667  0.16666667  0.46376076
   0.16666667  0.66666667  0.46376076
   0.66666667  0.66666667  0.46376076
   0.82921764  0.33539009  0.53872362
   0.32538625  0.33730817  0.53798228
   0.82921773  0.83539000  0.53872362
   0.32538623  0.83730788  0.53798227
   0.98860070  0.00570168  0.60818241
   0.49804146  0.00097565  0.62101614
   0.98860065  0.50570182  0.60818242
   0.49804149  0.50097572  0.62101628
Direct configuration=    12
   0.00000000  0.00000000  0.39128229
   0.50000000  0.00000000  0.39128229
   0.00000000  0.50000000  0.39128229
   0.50000000  0.50000000  0.39128229
   0.16666667  0.16666667  0.46376076
   0.66666667  0.16666667  0.46376076
   0.16666667  0.66666667  0.46376076
   0.66666667  0.66666667  0.46376076
   0.82905871  0.33546978  0.53873310
   0.32627190  0.33686564  0.53814684
   0.82905890  0.83546963  0.53873309
   0.32627188  0.83686508  0.53814683
   0.98770789  0.00614770  0.60855252
   0.49604261  0.00197479  0.62117269
   0.98770779  0.50614782  0.60855252
   0.49604267  0.50197495  0.62117284
Direct configuration=    13
   0.00000000  0.00000000  0.39128229
   0.50000000  0.00000000  0.39128229
   0.00000000  0.50000000  0.39128229
   0.50000000  0.50000000  0.39128229
   0.16666667  0.16666667  0.46376076
   0.66666667  0.16666667  0.46376076
   0.16666667  0.66666667  0.46376076
   0.66666667  0.66666667  0.46376076
   0.82874085  0.33562917  0.53875204
   0.32804320  0.33598059  0.53847597
   0.82874123  0.83562889  0.53875203
   0.32804320  0.83597949  0.53847595
   0.98592226  0.00703973  0.60929274
   0.49204491  0.00397307  0.62148579
   0.98592208  0.50703982  0.60929273
   0.49204503  0.50397342  0.62148597
Direct configuration=    14
   0.00000000  0.00000000  0.39128229
   0.50000000  0.00000000  0.39128229
   0.00000000  0.50000000  0.39128229
   0.50000000  0.50000000  0.39128229
   0.16666667  0.16666667  0.46376076
   0.66666667  0.16666667  0.46376076
   0.16666667  0.66666667  0.46376076
   0.66666667  0.66666667  0.46376076
   0.82896043  0.33551907  0.53873895
   0.32681957  0.33659199  0.53824861
   0.82896068  0.83551887  0.53873895
   0.32681956  0.83659126  0.53824859
   0.98715579  0.00642351  0.60878139
   0.49480656  0.00259264  0.62126950
   0.98715567  0.50642362  0.60878138
   0.49480664  0.50259286  0.62126966
Direct configuration=    15
   0.00000000  0.00000000  0.39128229
   0.50000000  0.00000000  0.39128229
   0.00000000  0.50000000  0.39128229
   0.50000000  0.50000000  0.39128229
   0.16666667  0.16666667  0.46376076
   0.66666667  0.16666667  0.46376076
   0.16666667  0.66666667  0.46376076
   0.66666667  0.66666667  0.46376076
   0.83125636  0.33437163  0.53896019
   0.32547149  0.33726604  0.53864658
   0.83125609  0.83437176  0.53896017
   0.32547146  0.83726667  0.53864655
   0.98438652  0.00780713  0.60910482
   0.49092001  0.00453515  0.62128983
   0.98438653  0.50780706  0.60910482
   0.49092014  0.50453491  0.62129005
Direct configuration=    16
   0.00000000  0.00000000  0.39128229
   0.50000000  0.00000000  0.39128229
   0.00000000  0.50000000  0.39128229
   0.50000000  0.50000000  0.39128229
   0.16666667  0.16666667  0.46376076
   0.66666667  0.16666667  0.46376076
   0.16666667  0.66666667  0.46376076
   0.66666667  0.66666667  0.46376076
   0.83130790  0.33434588  0.53896515
   0.32544123  0.33728117  0.53865551
   0.83130762  0.83434601  0.53896513
   0.32544120  0.83728183  0.53865549
   0.98432436  0.00783819  0.60911208
   0.49083277  0.00457875  0.62129029
   0.98432437  0.50783812  0.60911208
   0.49083289  0.50457850  0.62129051
Direct configuration=    17
   0.00000000  0.00000000  0.39128229
   0.50000000  0.00000000  0.39128229
   0.00000000  0.50000000  0.39128229
   0.50000000  0.50000000  0.39128229
   0.16666667  0.16666667  0.46376076
   0.66666667  0.16666667  0.46376076
   0.16666667  0.66666667  0.46376076
   0.66666667  0.66666667  0.46376076
   0.83132209  0.33433908  0.53908131
   0.32574148  0.33713287  0.53865216
   0.83132234  0.83433899  0.53908129
   0.32574140  0.83713224  0.53865216
   0.98085337  0.00957220  0.60913189
   0.48884766  0.00556998  0.62127630
   0.98085334  0.50957223  0.60913190
   0.48884766  0.50557006  0.62127657
Direct configuration=    18
   0.00000000  0.00000000  0.39128229
   0.50000000  0.00000000  0.39128229
   0.00000000  0.50000000  0.39128229
   0.50000000  0.50000000  0.39128229
   0.16666667  0.16666667  0.46376076
   0.66666667  0.16666667  0.46376076
   0.16666667  0.66666667  0.46376076
   0.66666667  0.66666667  0.46376076
   0.83132930  0.33433563  0.53914028
   0.32589392  0.33705758  0.53865046
   0.83132981  0.83433542  0.53914027
   0.32589382  0.83705628  0.53865047
   0.97909104  0.01045261  0.60914195
   0.48783976  0.00607326  0.62126919
   0.97909098  0.51045269  0.60914196
   0.48783969  0.50607350  0.62126949
Direct configuration=    19
   0.00000000  0.00000000  0.39128229
   0.50000000  0.00000000  0.39128229
   0.00000000  0.50000000  0.39128229
   0.50000000  0.50000000  0.39128229
   0.16666667  0.16666667  0.46376076
   0.66666667  0.16666667  0.46376076
   0.16666667  0.66666667  0.46376076
   0.66666667  0.66666667  0.46376076
   0.83134371  0.33432872  0.53925823
   0.32619881  0.33690699  0.53864707
   0.83134476  0.83432829  0.53925823
   0.32619866  0.83690438  0.53864709
   0.97556637  0.01221344  0.60916207
   0.48582395  0.00707982  0.62125499
   0.97556627  0.51221362  0.60916209
   0.48582375  0.50708039  0.62125533
Direct configuration=    20
   0.00000000  0.00000000  0.39128229
   0.50000000  0.00000000  0.39128229
   0.00000000  0.50000000  0.39128229
   0.50000000  0.50000000  0.39128229
   0.16666667  0.16666667  0.46376076
   0.66666667  0.16666667  0.46376076
   0.16666667  0.66666667  0.46376076
   0.66666667  0.66666667  0.46376076
   0.83133493  0.33433293  0.53918638
   0.32601307  0.33699873  0.53864914
   0.83133565  0.83433263  0.53918637
   0.32601295  0.83699692  0.53864915
   0.97771362  0.01114073  0.60914981
   0.48705199  0.00646662  0.62126364
   0.97771355  0.51114085  0.60914983
   0.48705187  0.50646699  0.62126395
Direct configuration=    21
   0.00000000  0.00000000  0.39128229
   0.50000000  0.00000000  0.39128229
   0.00000000  0.50000000  0.39128229
   0.50000000  0.50000000  0.39128229
   0.16666667  0.16666667  0.46376076
   0.66666667  0.16666667  0.46376076
   0.16666667  0.66666667  0.46376076
   0.66666667  0.66666667  0.46376076
   0.83043472  0.33478329  0.53911134
   0.32560808  0.33720160  0.53860558
   0.83043411  0.83478357  0.53911132
   0.32560802  0.83720309  0.53860558
   0.97548006  0.01225611  0.60898726
   0.48356317  0.00820837  0.62129499
   0.97548018  0.51225596  0.60898728
   0.48356304  0.50820834  0.62129544
Direct configuration=    22
   0.00000000  0.00000000  0.39128229
   0.50000000  0.00000000  0.39128229
   0.00000000  0.50000000  0.39128229
   0.50000000  0.50000000  0.39128229
   0.16666667  0.16666667  0.46376076
   0.66666667  0.16666667  0.46376076
   0.16666667  0.66666667  0.46376076
   0.66666667  0.66666667  0.46376076
   0.82773410  0.33613438  0.53888623
   0.32439311  0.33781021  0.53847490
   0.82772949  0.83613638  0.53888617
   0.32439323  0.83782159  0.53847490
   0.96877938  0.01560226  0.60849962
   0.47309670  0.01343364  0.62138904
   0.96878009  0.51560129  0.60849963
   0.47309656  0.51343241  0.62138991
Direct configuration=    23
   0.00000000  0.00000000  0.39128229
   0.50000000  0.00000000  0.39128229
   0.00000000  0.50000000  0.39128229
   0.50000000  0.50000000  0.39128229
   0.16666667  0.16666667  0.46376076
   0.66666667  0.16666667  0.46376076
   0.16666667  0.66666667  0.46376076
   0.66666667  0.66666667  0.46376076
   0.82680091  0.33660124  0.53880844
   0.32397328  0.33802051  0.53842974
   0.82679492  0.83660384  0.53880837
   0.32397347  0.83803532  0.53842974
   0.96646400  0.01675851  0.60833112
   0.46948006  0.01523921  0.62142154
   0.96646491  0.51675725  0.60833113
   0.46947992  0.51523756  0.62142256
Direct configuration=    24
   0.00000000  0.00000000  0.39128229
   0.50000000  0.00000000  0.39128229
   0.00000000  0.50000000  0.39128229
   0.50000000  0.50000000  0.39128229
   0.16666667  0.16666667  0.46376076
   0.66666667  0.16666667  0.46376076
   0.16666667  0.66666667  0.46376076
   0.66666667  0.66666667  0.46376076
   0.82643220  0.33678575  0.53875602
   0.32343980  0.33829033  0.53842392
   0.82642771  0.83678760  0.53875596
   0.32343999  0.83830129  0.53842393
   0.96494576  0.01751677  0.60824151
   0.46813207  0.01591120  0.62144379
   0.96494654  0.51751570  0.60824153
   0.46813170  0.51591004  0.62144483
Direct configuration=    25
   0.00000000  0.00000000  0.39128229
   0.50000000  0.00000000  0.39128229
   0.00000000  0.50000000  0.39128229
   0.50000000  0.50000000  0.39128229
   0.16666667  0.16666667  0.46376076
   0.66666667  0.16666667  0.46376076
   0.16666667  0.66666667  0.46376076
   0.66666667  0.66666667  0.46376076
   0.82532606  0.33733926  0.53859874
   0.32183935  0.33909977  0.53840645
   0.82532609  0.83733888  0.53859875
   0.32183955  0.83909921  0.53840648
   0.96039104  0.01979156  0.60797271
   0.46408809  0.01792718  0.62151053
   0.96039145  0.51979104  0.60797274
   0.46408706  0.51792746  0.62151163
Direct configuration=    26
   0.00000000  0.00000000  0.39128229
   0.50000000  0.00000000  0.39128229
   0.00000000  0.50000000  0.39128229
   0.50000000  0.50000000  0.39128229
   0.16666667  0.16666667  0.46376076
   0.66666667  0.16666667  0.46376076
   0.16666667  0.66666667  0.46376076
   0.66666667  0.66666667  0.46376076
   0.82311378  0.33844629  0.53828420
   0.31863847  0.34071866  0.53837152
   0.82312284  0.83844142  0.53828432
   0.31863867  0.84069504  0.53837159
   0.95128160  0.02434114  0.60743511
   0.45600014  0.02195913  0.62164402
   0.95128126  0.52434173  0.60743516
   0.45599778  0.52196230  0.62164525
Direct configuration=    27
   0.00000000  0.00000000  0.39128229
   0.50000000  0.00000000  0.39128229
   0.00000000  0.50000000  0.39128229
   0.50000000  0.50000000  0.39128229
   0.16666667  0.16666667  0.46376076
   0.66666667  0.16666667  0.46376076
   0.16666667  0.66666667  0.46376076
   0.66666667  0.66666667  0.46376076
   0.82268793  0.33865490  0.53823317
   0.31831171  0.34086695  0.53842369
   0.82268754  0.83865494  0.53823316
   0.31831180  0.84086607  0.53842373
   0.95065359  0.02465064  0.60753315
   0.45645301  0.02176282  0.62163710
   0.95065372  0.52464997  0.60753319
   0.45645131  0.52176394  0.62163869
Direct configuration=    28
   0.00000000  0.00000000  0.39128229
   0.50000000  0.00000000  0.39128229
   0.00000000  0.50000000  0.39128229
   0.50000000  0.50000000  0.39128229
   0.16666667  0.16666667  0.46376076
   0.66666667  0.16666667  0.46376076
   0.16666667  0.66666667  0.46376076
   0.66666667  0.66666667  0.46376076
   0.82242029  0.33878601  0.53820110
   0.31810635  0.34096015  0.53845649
   0.82241396  0.83878913  0.53820100
   0.31810636  0.84097355  0.53845650
   0.95025889  0.02484517  0.60759477
   0.45673764  0.02163944  0.62163275
   0.95025932  0.52484370  0.60759480
   0.45673636  0.52163927  0.62163456
Direct configuration=    29
   0.00000000  0.00000000  0.39128229
   0.50000000  0.00000000  0.39128229
   0.00000000  0.50000000  0.39128229
   0.50000000  0.50000000  0.39128229
   0.16666667  0.16666667  0.46376076
   0.66666667  0.16666667  0.46376076
   0.16666667  0.66666667  0.46376076
   0.66666667  0.66666667  0.46376076
   0.82188501  0.33904824  0.53813695
   0.31769562  0.34114655  0.53852207
   0.82186679  0.83905752  0.53813670
   0.31769549  0.84118853  0.53852205
   0.94946949  0.02523421  0.60771800
   0.45730689  0.02139268  0.62162404
   0.94947052  0.52523116  0.60771802
   0.45730645  0.52138993  0.62162632
Direct configuration=    30
   0.00000000  0.00000000  0.39128229
   0.50000000  0.00000000  0.39128229
   0.00000000  0.50000000  0.39128229
   0.50000000  0.50000000  0.39128229
   0.16666667  0.16666667  0.46376076
   0.66666667  0.16666667  0.46376076
   0.16666667  0.66666667  0.46376076
   0.66666667  0.66666667  0.46376076
   0.82162339  0.33917873  0.53815631
   0.31702213  0.34150798  0.53857939
   0.82162717  0.83917686  0.53815637
   0.31702209  0.84149785  0.53857941
   0.94966361  0.02514258  0.60777171
   0.45726387  0.02141846  0.62163254
   0.94966360  0.52514186  0.60777173
   0.45726133  0.52141988  0.62163443
