       N       E                     dE             d eps       ncg     rms          rms(c)
DAV:   1     0.391968048430E+04    0.39197E+04   -0.15743E+05  1992   0.164E+03
DAV:   2     0.477353499066E+03   -0.34423E+04   -0.33156E+04  1992   0.407E+02
DAV:   3    -0.296724260062E+02   -0.50703E+03   -0.46595E+03  2378   0.200E+02
DAV:   4    -0.123715254529E+03   -0.94043E+02   -0.85643E+02  3576   0.770E+01
DAV:   5    -0.137265653532E+03   -0.13550E+02   -0.12346E+02  3120   0.280E+01    0.550E+01
DAV:   6    -0.116037024002E+03    0.21229E+02   -0.37146E+02  2472   0.134E+02    0.371E+01
DAV:   7    -0.105705554483E+03    0.10331E+02   -0.14679E+02  2680   0.148E+02    0.243E+01
DAV:   8    -0.927366976030E+02    0.12969E+02   -0.48299E+01  3040   0.973E+01    0.165E+01
DAV:   9    -0.904225895007E+02    0.23141E+01   -0.17477E+01  3008   0.641E+01    0.961E+00
DAV:  10    -0.900502065993E+02    0.37238E+00   -0.10891E+01  2848   0.276E+01    0.548E+00
DAV:  11    -0.900787130839E+02   -0.28506E-01   -0.31735E+00  2688   0.216E+01    0.388E+00
DAV:  12    -0.900933848562E+02   -0.14672E-01   -0.21733E+00  2312   0.223E+01    0.256E+00
DAV:  13    -0.901263669005E+02   -0.32982E-01   -0.97442E-01  2392   0.982E+00    0.229E+00
DAV:  14    -0.900366327441E+02    0.89734E-01   -0.20602E-01  2672   0.455E+00    0.106E+00
DAV:  15    -0.900270067379E+02    0.96260E-02   -0.14375E-01  2936   0.336E+00    0.470E-01
DAV:  16    -0.900271493020E+02   -0.14256E-03   -0.38817E-02  2208   0.135E+00    0.213E-01
DAV:  17    -0.900272948599E+02   -0.14556E-03   -0.66677E-03  2336   0.103E+00    0.182E-01
DAV:  18    -0.900271412692E+02    0.15359E-03   -0.23835E-03  2424   0.797E-01    0.867E-02
DAV:  19    -0.900275665845E+02   -0.42532E-03   -0.12708E-03  2904   0.374E-01    0.693E-02
DAV:  20    -0.900278951390E+02   -0.32855E-03   -0.28939E-04  2728   0.231E-01    0.439E-02
DAV:  21    -0.900284142614E+02   -0.51912E-03   -0.21750E-04  2968   0.151E-01    0.224E-02
DAV:  22    -0.900289880293E+02   -0.57377E-03   -0.19370E-04  2312   0.139E-01    0.216E-02
DAV:  23    -0.900293413190E+02   -0.35329E-03   -0.63981E-05  2568   0.850E-02    0.207E-02
DAV:  24    -0.900295706250E+02   -0.22931E-03   -0.24737E-05  2672   0.618E-02    0.123E-02
DAV:  25    -0.900298592027E+02   -0.28858E-03   -0.38591E-05  2694   0.342E-02    0.450E-03
DAV:  26    -0.900299492417E+02   -0.90039E-04   -0.80521E-06  2232   0.241E-02    0.409E-03
DAV:  27    -0.900299839033E+02   -0.34662E-04   -0.23804E-06  1416   0.189E-02    0.285E-03
DAV:  28    -0.900300548634E+02   -0.70960E-04   -0.33835E-06  1592   0.146E-02    0.218E-03
DAV:  29    -0.900300735976E+02   -0.18734E-04   -0.13213E-06  1352   0.810E-03    0.142E-03
DAV:  30    -0.900300838444E+02   -0.10247E-04   -0.61698E-07  1264   0.715E-03    0.124E-03
DAV:  31    -0.900301011350E+02   -0.17291E-04   -0.93267E-07  1263   0.493E-03    0.955E-04
DAV:  32    -0.900301077995E+02   -0.66645E-05   -0.39513E-07  1304   0.385E-03    0.648E-04
DAV:  33    -0.900301107629E+02   -0.29634E-05   -0.18741E-07  1248   0.316E-03    0.480E-04
DAV:  34    -0.900301129820E+02   -0.22191E-05   -0.10108E-07  1232   0.174E-03    0.315E-04
DAV:  35    -0.900301149972E+02   -0.20152E-05   -0.65683E-08  1200   0.172E-03    0.328E-04
DAV:  36    -0.900301161797E+02   -0.11825E-05   -0.44957E-08  1192   0.133E-03    0.252E-04
DAV:  37    -0.900301165440E+02   -0.36432E-06   -0.18792E-08  1160   0.108E-03
   1 F= -.90030117E+02 E0= -.89999690E+02  d E =-.900301E+02
       N       E                     dE             d eps       ncg     rms          rms(c)
DAV:   1    -0.487477876299E+02    0.41282E+02   -0.74837E+03  2698   0.149E+02    0.323E+01
DAV:   2    -0.155934759350E+03   -0.10719E+03   -0.89304E+02  3784   0.153E+02    0.324E+01
DAV:   3    -0.155284008457E+03    0.65075E+00   -0.39255E+02  3264   0.172E+02    0.400E+01
DAV:   4    -0.140600142009E+03    0.14684E+02   -0.70889E+01  3032   0.902E+01    0.288E+01
DAV:   5    -0.133251169470E+03    0.73490E+01   -0.26299E+01  2424   0.535E+01    0.240E+01
DAV:   6    -0.130564975786E+03    0.26862E+01   -0.24311E+01  2744   0.404E+01    0.382E+01
DAV:   7    -0.122769286367E+03    0.77957E+01   -0.14959E+01  2664   0.295E+01    0.112E+01
DAV:   8    -0.152884385910E+03   -0.30115E+02   -0.44715E+01  2840   0.244E+01    0.408E+01
DAV:   9    -0.122662546143E+03    0.30222E+02   -0.53665E+00  3094   0.201E+01    0.165E+01
DAV:  10    -0.121979697846E+03    0.68285E+00   -0.56076E+00  2968   0.104E+01    0.561E+00
DAV:  11    -0.122335458063E+03   -0.35576E+00   -0.30900E+00  2392   0.325E+00    0.830E+00
DAV:  12    -0.122677953766E+03   -0.34250E+00   -0.64619E-01  3640   0.145E+00    0.135E+01
DAV:  13    -0.123678683502E+03   -0.10007E+01   -0.68828E+00  2551   0.798E+00    0.233E+01
DAV:  14    -0.122244030412E+03    0.14347E+01   -0.11433E+01  3099   0.374E+00    0.104E+01
DAV:  15    -0.121922692352E+03    0.32134E+00   -0.21648E+00  2462   0.480E+00    0.464E+00
DAV:  16    -0.121888124373E+03    0.34568E-01   -0.52676E-01  2768   0.150E+00    0.363E+00
DAV:  17    -0.121837058092E+03    0.51066E-01   -0.18128E-02  2742   0.588E-01    0.282E+00
DAV:  18    -0.121834792940E+03    0.22652E-02   -0.53110E-02  2695   0.126E+00    0.278E+00
DAV:  19    -0.121890524820E+03   -0.55732E-01   -0.21112E-02  2792   0.797E-01    0.412E+00
DAV:  20    -0.121899431299E+03   -0.89065E-02   -0.52304E-03  2693   0.713E-01    0.401E+00
DAV:  21    -0.121863165013E+03    0.36266E-01   -0.41576E-02  2814   0.490E-01    0.181E+00
DAV:  22    -0.121869379756E+03   -0.62147E-02   -0.20203E-03  2408   0.510E-01    0.215E+00
DAV:  23    -0.121860928544E+03    0.84512E-02   -0.59678E-03  2413   0.380E-01    0.121E+00
DAV:  24    -0.121879885515E+03   -0.18957E-01   -0.12093E-02  2439   0.447E-01    0.274E+00
DAV:  25    -0.121856165462E+03    0.23720E-01   -0.50462E-02  2270   0.268E-01    0.376E-01
DAV:  26    -0.121858695637E+03   -0.25302E-02   -0.17669E-03  2663   0.266E-01    0.363E-01
DAV:  27    -0.121861096115E+03   -0.24005E-02   -0.20929E-03  2663   0.220E-01    0.758E-01
DAV:  28    -0.121860220846E+03    0.87527E-03   -0.10978E-03  3294   0.170E-01    0.431E-01
DAV:  29    -0.121859842381E+03    0.37846E-03   -0.53949E-04  2359   0.123E-01    0.142E-01
DAV:  30    -0.121860211349E+03   -0.36897E-03   -0.13103E-04  2495   0.706E-02    0.241E-01
DAV:  31    -0.121860831576E+03   -0.62023E-03   -0.17715E-04  2486   0.656E-02    0.398E-01
DAV:  32    -0.121860470659E+03    0.36092E-03   -0.36373E-04  2774   0.518E-02    0.165E-01
DAV:  33    -0.121860451442E+03    0.19217E-04   -0.16153E-04  2231   0.374E-02    0.233E-02
DAV:  34    -0.121860559479E+03   -0.10804E-03   -0.94056E-05  1798   0.310E-02    0.999E-02
DAV:  35    -0.121860561137E+03   -0.16582E-05   -0.35404E-05  1622   0.221E-02    0.270E-02
DAV:  36    -0.121860579073E+03   -0.17936E-04   -0.10982E-05  1543   0.176E-02    0.120E-02
DAV:  37    -0.121860592010E+03   -0.12936E-04   -0.25766E-06  1336   0.115E-02    0.167E-02
DAV:  38    -0.121860600309E+03   -0.82994E-05   -0.17631E-06  1326   0.753E-03    0.274E-02
DAV:  39    -0.121860607656E+03   -0.73469E-05   -0.21258E-06  1296   0.817E-03    0.980E-03
DAV:  40    -0.121860611524E+03   -0.38681E-05   -0.70207E-07  1286   0.537E-03    0.376E-03
DAV:  41    -0.121860613777E+03   -0.22525E-05   -0.75875E-07  1176   0.454E-03    0.132E-02
DAV:  42    -0.121860617442E+03   -0.36657E-05   -0.63810E-07  1158   0.265E-03    0.389E-03
DAV:  43    -0.121860618629E+03   -0.11862E-05   -0.26167E-07  1168   0.287E-03    0.154E-03
DAV:  44    -0.121860619993E+03   -0.13646E-05   -0.62878E-08  1112   0.213E-03    0.215E-03
DAV:  45    -0.121860621272E+03   -0.12786E-05   -0.69431E-08  1136   0.112E-03    0.339E-03
DAV:  46    -0.121860621685E+03   -0.41316E-06   -0.38711E-08  1120   0.123E-03
   2 F= -.12186062E+03 E0= -.12177031E+03  d E =-.318305E+02
       N       E                     dE             d eps       ncg     rms          rms(c)
DAV:   1    -0.118611450419E+03    0.32492E+01   -0.35829E+02  1992   0.303E+01    0.105E+01
DAV:   2    -0.132874800630E+03   -0.14263E+02   -0.43012E+01  3652   0.483E+01    0.393E+01
DAV:   3    -0.123915763719E+03    0.89590E+01   -0.30504E+01  3078   0.143E+01    0.185E+01
DAV:   4    -0.119650347789E+03    0.42654E+01   -0.34575E+00  2760   0.465E+01    0.636E+00
DAV:   5    -0.119390532459E+03    0.25982E+00   -0.12790E+00  3352   0.252E+01    0.437E+00
DAV:   6    -0.119447497956E+03   -0.56965E-01   -0.65703E-01  3101   0.926E+00    0.519E+00
DAV:   7    -0.120569976739E+03   -0.11225E+01   -0.45707E+00  2466   0.414E+00    0.226E+01
DAV:   8    -0.119325606994E+03    0.12444E+01   -0.15243E+00  2883   0.160E+00    0.222E+00
DAV:   9    -0.119353235137E+03   -0.27628E-01   -0.11945E-01  2308   0.835E+00    0.207E+00
DAV:  10    -0.119353817336E+03   -0.58220E-03   -0.11530E-01  2926   0.213E+00    0.141E+00
DAV:  11    -0.119349226780E+03    0.45906E-02   -0.20051E-02  3100   0.127E+00    0.437E-01
DAV:  12    -0.119354183864E+03   -0.49571E-02   -0.65909E-03  2525   0.780E-01    0.254E-01
DAV:  13    -0.119355178118E+03   -0.99425E-03   -0.31838E-03  2156   0.891E-01    0.211E-01
DAV:  14    -0.119355518041E+03   -0.33992E-03   -0.15405E-03  2647   0.372E-01    0.639E-02
DAV:  15    -0.119355521853E+03   -0.38113E-05   -0.52207E-04  2448   0.250E-01    0.445E-02
DAV:  16    -0.119355531310E+03   -0.94572E-05   -0.16109E-04  2292   0.142E-01    0.281E-02
DAV:  17    -0.119355541110E+03   -0.98000E-05   -0.41922E-05  2350   0.492E-02    0.202E-02
DAV:  18    -0.119355564155E+03   -0.23045E-04   -0.11294E-05  2260   0.452E-02    0.151E-02
DAV:  19    -0.119355577062E+03   -0.12907E-04   -0.61335E-06  1900   0.303E-02    0.556E-03
DAV:  20    -0.119355592375E+03   -0.15312E-04   -0.37609E-06  1524   0.211E-02    0.271E-03
DAV:  21    -0.119355599576E+03   -0.72016E-05   -0.10434E-06  1310   0.113E-02    0.525E-03
DAV:  22    -0.119355612695E+03   -0.13119E-04   -0.12292E-06  1268   0.874E-03    0.282E-03
DAV:  23    -0.119355618702E+03   -0.60071E-05   -0.55856E-07  1235   0.569E-03    0.388E-03
DAV:  24    -0.119355627514E+03   -0.88123E-05   -0.68801E-07  1252   0.458E-03    0.230E-03
DAV:  25    -0.119355630987E+03   -0.34728E-05   -0.28530E-07  1249   0.436E-03    0.263E-03
DAV:  26    -0.119355632810E+03   -0.18228E-05   -0.15761E-07  1164   0.262E-03    0.816E-04
DAV:  27    -0.119355635921E+03   -0.31105E-05   -0.21023E-07  1196   0.236E-03    0.687E-04
DAV:  28    -0.119355636709E+03   -0.78848E-06   -0.60020E-08  1146   0.196E-03
   3 F= -.11935564E+03 E0= -.11927487E+03  d E =-.293255E+02
       N       E                     dE             d eps       ncg     rms          rms(c)
DAV:   1    -0.120943228875E+03   -0.15876E+01   -0.88837E+01  2000   0.148E+01    0.322E+00
DAV:   2    -0.121537150942E+03   -0.59392E+00   -0.61974E+00  3308   0.164E+01    0.769E+00
DAV:   3    -0.122295011218E+03   -0.75786E+00   -0.65468E+00  2928   0.543E+00    0.167E+01
DAV:   4    -0.121249631629E+03    0.10454E+01   -0.34864E+00  2596   0.146E+01    0.227E+00
DAV:   5    -0.121301444208E+03   -0.51813E-01   -0.13531E-01  3150   0.595E+00    0.144E+00
DAV:   6    -0.121523869392E+03   -0.22243E+00   -0.12032E+00  3046   0.295E+00    0.107E+01
DAV:   7    -0.121279190803E+03    0.24468E+00   -0.86204E-01  2892   0.286E+00    0.149E+00
DAV:   8    -0.121292725212E+03   -0.13534E-01   -0.57545E-02  2326   0.558E+00    0.885E-01
DAV:   9    -0.121291089590E+03    0.16356E-02   -0.14501E-02  3046   0.172E+00    0.147E-01
DAV:  10    -0.121292139093E+03   -0.10495E-02   -0.40653E-03  2620   0.359E-01    0.386E-01
DAV:  11    -0.121291695260E+03    0.44383E-03   -0.11003E-03  2334   0.491E-01    0.216E-01
DAV:  12    -0.121291686592E+03    0.86679E-05   -0.34190E-04  2696   0.179E-01    0.119E-01
DAV:  13    -0.121291694321E+03   -0.77288E-05   -0.25851E-04  2252   0.214E-01    0.626E-02
DAV:  14    -0.121291705295E+03   -0.10974E-04   -0.54198E-05  2510   0.554E-02    0.346E-02
DAV:  15    -0.121291717157E+03   -0.11862E-04   -0.18805E-05  2173   0.503E-02    0.255E-02
DAV:  16    -0.121291727933E+03   -0.10776E-04   -0.69701E-06  1812   0.281E-02    0.164E-02
DAV:  17    -0.121291741994E+03   -0.14062E-04   -0.36319E-06  1308   0.159E-02    0.830E-03
DAV:  18    -0.121291749523E+03   -0.75286E-05   -0.10785E-06  1315   0.104E-02    0.477E-03
DAV:  19    -0.121291756599E+03   -0.70765E-05   -0.74194E-07  1226   0.724E-03    0.376E-03
DAV:  20    -0.121291765279E+03   -0.86795E-05   -0.83601E-07  1250   0.494E-03    0.170E-03
DAV:  21    -0.121291770101E+03   -0.48223E-05   -0.56132E-07  1259   0.487E-03    0.203E-03
DAV:  22    -0.121291772208E+03   -0.21071E-05   -0.25399E-07  1187   0.443E-03    0.906E-04
DAV:  23    -0.121291776415E+03   -0.42069E-05   -0.54163E-07  1235   0.293E-03    0.167E-03
DAV:  24    -0.121291777542E+03   -0.11267E-05   -0.14496E-07  1218   0.200E-03    0.808E-04
DAV:  25    -0.121291777951E+03   -0.40961E-06   -0.69664E-08  1130   0.187E-03
   4 F= -.12129178E+03 E0= -.12120576E+03  d E =-.312617E+02
       N       E                     dE             d eps       ncg     rms          rms(c)
DAV:   1    -0.121943993898E+03   -0.65222E+00   -0.25706E+01  1992   0.810E+00    0.205E+00
DAV:   2    -0.122318918419E+03   -0.37492E+00   -0.30376E+00  3437   0.103E+01    0.986E+00
DAV:   3    -0.122140819003E+03    0.17810E+00   -0.15865E+00  3040   0.264E+00    0.654E+00
DAV:   4    -0.121989954207E+03    0.15086E+00   -0.66111E-01  2424   0.111E+01    0.199E+00
DAV:   5    -0.121984580645E+03    0.53736E-02   -0.90465E-02  3054   0.294E+00    0.151E+00
DAV:   6    -0.122097942541E+03   -0.11336E+00   -0.77725E-01  3053   0.135E+00    0.800E+00
DAV:   7    -0.121962428859E+03    0.13551E+00   -0.47554E-01  2718   0.233E+00    0.807E-01
DAV:   8    -0.121976119861E+03   -0.13691E-01   -0.13784E-02  3182   0.152E+00    0.369E-01
DAV:   9    -0.121976713404E+03   -0.59354E-03   -0.38420E-03  2765   0.722E-01    0.200E-01
DAV:  10    -0.121976791938E+03   -0.78534E-04   -0.70591E-04  2606   0.349E-01    0.199E-01
DAV:  11    -0.121976788997E+03    0.29406E-05   -0.43560E-04  2278   0.329E-01    0.137E-01
DAV:  12    -0.121976760520E+03    0.28477E-04   -0.17404E-04  2408   0.164E-01    0.573E-02
DAV:  13    -0.121976757190E+03    0.33299E-05   -0.54863E-05  2893   0.783E-02    0.363E-02
DAV:  14    -0.121976757994E+03   -0.80327E-06   -0.16690E-05  2576   0.406E-02    0.156E-02
DAV:  15    -0.121976763663E+03   -0.56690E-05   -0.66519E-06  2070   0.241E-02    0.108E-02
DAV:  16    -0.121976769568E+03   -0.59054E-05   -0.29582E-06  1374   0.193E-02    0.103E-02
DAV:  17    -0.121976772749E+03   -0.31808E-05   -0.81511E-07  1292   0.675E-03    0.737E-03
DAV:  18    -0.121976774295E+03   -0.15464E-05   -0.44673E-07  1174   0.617E-03    0.311E-03
DAV:  19    -0.121976774571E+03   -0.27526E-06   -0.19383E-07  1132   0.461E-03
   5 F= -.12197677E+03 E0= -.12188804E+03  d E =-.319467E+02
       N       E                     dE             d eps       ncg     rms          rms(c)
DAV:   1    -0.122046895216E+03   -0.70121E-01   -0.23017E+00  1992   0.242E+00    0.670E-01
DAV:   2    -0.122094364640E+03   -0.47469E-01   -0.30492E-01  3445   0.334E+00    0.362E+00
DAV:   3    -0.122060493142E+03    0.33871E-01   -0.37305E-01  3007   0.875E-01    0.186E+00
DAV:   4    -0.122048818969E+03    0.11674E-01   -0.55291E-02  2375   0.393E+00    0.637E-01
DAV:   5    -0.122055858017E+03   -0.70390E-02   -0.59157E-02  3166   0.155E+00    0.241E+00
DAV:   6    -0.122046241947E+03    0.96161E-02   -0.80003E-02  2932   0.239E-01    0.747E-01
DAV:   7    -0.122046959683E+03   -0.71774E-03   -0.78748E-03  2318   0.146E+00    0.151E-01
DAV:   8    -0.122046802723E+03    0.15696E-03   -0.13039E-03  3334   0.845E-01    0.121E-01
DAV:   9    -0.122046787670E+03    0.15053E-04   -0.36356E-04  2998   0.299E-01    0.504E-02
DAV:  10    -0.122046771914E+03    0.15756E-04   -0.81507E-05  2271   0.104E-01    0.327E-02
DAV:  11    -0.122046778329E+03   -0.64156E-05   -0.19168E-05  2886   0.425E-02    0.163E-02
DAV:  12    -0.122046774879E+03    0.34503E-05   -0.12652E-05  2158   0.459E-02    0.455E-03
DAV:  13    -0.122046775263E+03   -0.38388E-06   -0.17121E-06  1212   0.146E-02
   6 F= -.12204678E+03 E0= -.12195749E+03  d E =-.320167E+02
       N       E                     dE             d eps       ncg     rms          rms(c)
DAV:   1    -0.122051011377E+03   -0.42365E-02   -0.22376E-01  1992   0.755E-01    0.214E-01
DAV:   2    -0.122055720615E+03   -0.47092E-02   -0.26477E-02  3494   0.106E+00    0.117E+00
DAV:   3    -0.122052228400E+03    0.34922E-02   -0.25373E-02  3006   0.274E-01    0.569E-01
DAV:   4    -0.122051147666E+03    0.10807E-02   -0.47974E-03  2342   0.127E+00    0.325E-01
DAV:   5    -0.122052832349E+03   -0.16847E-02   -0.15068E-02  2988   0.144E-01    0.108E+00
DAV:   6    -0.122050568342E+03    0.22640E-02   -0.10097E-02  2526   0.495E-01    0.747E-02
DAV:   7    -0.122050894739E+03   -0.32640E-03   -0.54467E-04  2350   0.508E-01    0.696E-02
DAV:   8    -0.122050877264E+03    0.17476E-04   -0.15533E-04  2982   0.284E-01    0.436E-02
DAV:   9    -0.122050880628E+03   -0.33641E-05   -0.66836E-05  3110   0.935E-02    0.271E-02
DAV:  10    -0.122050877602E+03    0.30254E-05   -0.76217E-06  2239   0.365E-02    0.239E-02
DAV:  11    -0.122050877424E+03    0.17864E-06   -0.47818E-06  1620   0.174E-02
   7 F= -.12205088E+03 E0= -.12196143E+03  d E =-.320208E+02
       N       E                     dE             d eps       ncg     rms          rms(c)
DAV:   1    -0.112802927656E+03    0.92479E+01   -0.38203E+03  2684   0.189E+02    0.190E+01
DAV:   2    -0.128635278437E+03   -0.15832E+02   -0.14673E+02  2512   0.682E+01    0.229E+01
DAV:   3    -0.143507955800E+03   -0.14873E+02   -0.17093E+01  2792   0.624E+01    0.388E+01
DAV:   4    -0.124368654621E+03    0.19139E+02   -0.17345E+01  3071   0.387E+01    0.138E+01
DAV:   5    -0.123607315357E+03    0.76134E+00   -0.39753E+00  2592   0.296E+01    0.587E+00
DAV:   6    -0.123623149930E+03   -0.15835E-01   -0.98594E-01  2664   0.111E+01    0.497E+00
DAV:   7    -0.124134832240E+03   -0.51168E+00   -0.30781E+00  2480   0.781E+00    0.162E+01
DAV:   8    -0.123644294462E+03    0.49054E+00   -0.16943E+00  2736   0.802E+00    0.556E+00
DAV:   9    -0.123689851656E+03   -0.45557E-01   -0.63159E-01  2424   0.115E+01    0.624E+00
DAV:  10    -0.123560089126E+03    0.12976E+00   -0.24320E-01  3184   0.360E+00    0.247E+00
DAV:  11    -0.123559259358E+03    0.82977E-03   -0.49787E-02  2336   0.241E+00    0.153E+00
DAV:  12    -0.123556266322E+03    0.29930E-02   -0.24475E-02  2272   0.180E+00    0.872E-01
DAV:  13    -0.123556765015E+03   -0.49869E-03   -0.11858E-02  2576   0.797E-01    0.255E-01
DAV:  14    -0.123558987097E+03   -0.22221E-02   -0.20315E-03  2680   0.519E-01    0.336E-01
DAV:  15    -0.123559296077E+03   -0.30898E-03   -0.16664E-03  2240   0.382E-01    0.162E-01
DAV:  16    -0.123559529092E+03   -0.23302E-03   -0.11359E-03  2216   0.283E-01    0.835E-02
DAV:  17    -0.123559564994E+03   -0.35902E-04   -0.14552E-04  2216   0.131E-01    0.476E-02
DAV:  18    -0.123559603590E+03   -0.38597E-04   -0.11273E-04  2224   0.152E-01    0.372E-02
DAV:  19    -0.123559646825E+03   -0.43234E-04   -0.61255E-05  2840   0.442E-02    0.270E-02
DAV:  20    -0.123559682791E+03   -0.35966E-04   -0.22008E-05  2184   0.549E-02    0.122E-02
DAV:  21    -0.123559712938E+03   -0.30147E-04   -0.80405E-06  1888   0.276E-02    0.127E-02
DAV:  22    -0.123559733187E+03   -0.20250E-04   -0.19648E-06  1400   0.155E-02    0.935E-03
DAV:  23    -0.123559753463E+03   -0.20276E-04   -0.34835E-06  1304   0.160E-02    0.688E-03
DAV:  24    -0.123559778221E+03   -0.24758E-04   -0.15956E-06  1264   0.785E-03    0.588E-03
DAV:  25    -0.123559796808E+03   -0.18588E-04   -0.17871E-06  1312   0.954E-03    0.268E-03
DAV:  26    -0.123559806033E+03   -0.92243E-05   -0.74117E-07  1272   0.685E-03    0.211E-03
DAV:  27    -0.123559809787E+03   -0.37545E-05   -0.45905E-07  1216   0.477E-03    0.274E-03
DAV:  28    -0.123559812247E+03   -0.24600E-05   -0.21232E-07  1176   0.346E-03    0.927E-04
DAV:  29    -0.123559813077E+03   -0.83027E-06   -0.13493E-07  1160   0.250E-03
   8 F= -.12355981E+03 E0= -.12348366E+03  d E =-.150894E+01
       N       E                     dE             d eps       ncg     rms          rms(c)
DAV:   1    -0.123380495004E+03    0.17932E+00   -0.47301E+02  2241   0.530E+01    0.375E+00
DAV:   2    -0.127261222866E+03   -0.38807E+01   -0.18938E+01  3543   0.272E+01    0.275E+01
DAV:   3    -0.124506453071E+03    0.27548E+01   -0.15030E+01  2652   0.735E+00    0.577E+00
DAV:   4    -0.124453253207E+03    0.53200E-01   -0.11338E+00  2352   0.229E+01    0.263E+00
DAV:   5    -0.124446587672E+03    0.66655E-02   -0.41374E-01  3528   0.694E+00    0.367E+00
DAV:   6    -0.124471951590E+03   -0.25364E-01   -0.70203E-01  2312   0.139E+00    0.502E+00
DAV:   7    -0.124415352564E+03    0.56599E-01   -0.22814E-01  2736   0.377E+00    0.107E+00
DAV:   8    -0.124413031167E+03    0.23214E-02   -0.50386E-02  3488   0.226E+00    0.641E-01
DAV:   9    -0.124411131869E+03    0.18993E-02   -0.12655E-02  2671   0.174E+00    0.257E-01
DAV:  10    -0.124411145361E+03   -0.13492E-04   -0.49163E-03  2926   0.906E-01    0.158E-01
DAV:  11    -0.124411253682E+03   -0.10832E-03   -0.12084E-03  3270   0.372E-01    0.146E-01
DAV:  12    -0.124411214739E+03    0.38944E-04   -0.49106E-04  2350   0.308E-01    0.102E-01
DAV:  13    -0.124411254662E+03   -0.39924E-04   -0.23536E-04  2302   0.272E-01    0.408E-02
DAV:  14    -0.124411280055E+03   -0.25392E-04   -0.86141E-05  2807   0.899E-02    0.187E-02
DAV:  15    -0.124411296905E+03   -0.16851E-04   -0.19095E-05  2303   0.407E-02    0.106E-02
DAV:  16    -0.124411323666E+03   -0.26761E-04   -0.53862E-06  1918   0.258E-02    0.119E-02
DAV:  17    -0.124411339968E+03   -0.16302E-04   -0.25518E-06  1319   0.189E-02    0.616E-03
DAV:  18    -0.124411363794E+03   -0.23826E-04   -0.26123E-06  1294   0.109E-02    0.542E-03
DAV:  19    -0.124411378878E+03   -0.15083E-04   -0.15246E-06  1303   0.120E-02    0.448E-03
DAV:  20    -0.124411397934E+03   -0.19056E-04   -0.20071E-06  1278   0.732E-03    0.261E-03
DAV:  21    -0.124411402253E+03   -0.43187E-05   -0.53266E-07  1303   0.539E-03    0.205E-03
DAV:  22    -0.124411410161E+03   -0.79079E-05   -0.89434E-07  1244   0.550E-03    0.222E-03
DAV:  23    -0.124411411664E+03   -0.15034E-05   -0.20607E-07  1206   0.258E-03    0.132E-03
DAV:  24    -0.124411413108E+03   -0.14440E-05   -0.17459E-07  1155   0.367E-03    0.800E-04
DAV:  25    -0.124411414104E+03   -0.99576E-06   -0.12669E-07  1157   0.228E-03
   9 F= -.12441141E+03 E0= -.12432955E+03  d E =-.236054E+01
       N       E                     dE             d eps       ncg     rms          rms(c)
DAV:   1    -0.121717216056E+03    0.26942E+01   -0.58365E+02  2016   0.494E+01    0.127E+01
DAV:   2    -0.128216354579E+03   -0.64991E+01   -0.34223E+01  3558   0.494E+01    0.291E+01
DAV:   3    -0.131402910814E+03   -0.31866E+01   -0.26991E+01  3126   0.208E+01    0.211E+01
DAV:   4    -0.123226915749E+03    0.81760E+01   -0.31937E+00  3384   0.450E+01    0.905E+00
DAV:   5    -0.123032165278E+03    0.19475E+00   -0.16057E+00  3495   0.286E+01    0.837E+00
DAV:   6    -0.122881247993E+03    0.15092E+00   -0.11724E+00  3231   0.108E+01    0.447E+00
DAV:   7    -0.123117627823E+03   -0.23638E+00   -0.11352E+00  2399   0.347E+00    0.923E+00
DAV:   8    -0.122946116428E+03    0.17151E+00   -0.16636E+00  2510   0.131E+00    0.487E+00
DAV:   9    -0.122913288661E+03    0.32828E-01   -0.28850E-01  3015   0.675E+00    0.253E+00
DAV:  10    -0.122901256092E+03    0.12033E-01   -0.60781E-02  3326   0.300E+00    0.255E+00
DAV:  11    -0.122881197083E+03    0.20059E-01   -0.29163E-02  2947   0.821E-01    0.137E+00
DAV:  12    -0.122880167747E+03    0.10293E-02   -0.58014E-03  2470   0.130E+00    0.867E-01
DAV:  13    -0.122879845753E+03    0.32199E-03   -0.70524E-03  3010   0.889E-01    0.274E-01
DAV:  14    -0.122880240445E+03   -0.39469E-03   -0.22008E-03  3021   0.334E-01    0.102E-01
DAV:  15    -0.122880549005E+03   -0.30856E-03   -0.64115E-04  2198   0.283E-01    0.662E-02
DAV:  16    -0.122880568412E+03   -0.19407E-04   -0.16168E-04  2288   0.173E-01    0.779E-02
DAV:  17    -0.122880556321E+03    0.12092E-04   -0.83124E-05  2674   0.430E-02    0.148E-02
DAV:  18    -0.122880563410E+03   -0.70896E-05   -0.19059E-05  2424   0.441E-02    0.145E-02
DAV:  19    -0.122880571306E+03   -0.78955E-05   -0.61384E-06  2128   0.372E-02    0.152E-02
DAV:  20    -0.122880589680E+03   -0.18374E-04   -0.53604E-06  1837   0.278E-02    0.712E-03
DAV:  21    -0.122880600773E+03   -0.11094E-04   -0.19723E-06  1278   0.117E-02    0.102E-02
DAV:  22    -0.122880610422E+03   -0.96487E-05   -0.12965E-06  1332   0.124E-02    0.417E-03
DAV:  23    -0.122880620578E+03   -0.10156E-04   -0.13753E-06  1284   0.845E-03    0.734E-03
DAV:  24    -0.122880634407E+03   -0.13828E-04   -0.15584E-06  1284   0.434E-03    0.134E-03
DAV:  25    -0.122880640327E+03   -0.59206E-05   -0.47196E-07  1285   0.576E-03    0.191E-03
DAV:  26    -0.122880644961E+03   -0.46342E-05   -0.21489E-07  1212   0.356E-03    0.827E-04
DAV:  27    -0.122880647632E+03   -0.26709E-05   -0.13869E-07  1164   0.204E-03    0.114E-03
DAV:  28    -0.122880649791E+03   -0.21588E-05   -0.94360E-08  1132   0.190E-03    0.874E-04
DAV:  29    -0.122880650440E+03   -0.64878E-06   -0.51585E-08  1143   0.157E-03
  10 F= -.12288065E+03 E0= -.12281492E+03  d E =0.153076E+01
       N       E                     dE             d eps       ncg     rms          rms(c)
DAV:   1    -0.123913157914E+03   -0.10325E+01   -0.12001E+02  1992   0.214E+01    0.261E+00
DAV:   2    -0.124314364648E+03   -0.40121E+00   -0.42580E+00  2997   0.863E+00    0.501E+00
DAV:   3    -0.124765292598E+03   -0.45093E+00   -0.53678E+00  3184   0.840E+00    0.125E+01
DAV:   4    -0.124218989605E+03    0.54630E+00   -0.10861E+00  2808   0.479E+00    0.222E+00
DAV:   5    -0.124245118257E+03   -0.26129E-01   -0.31450E-01  2248   0.638E+00    0.440E+00
DAV:   6    -0.124228897275E+03    0.16221E-01   -0.65995E-01  2479   0.820E-01    0.344E+00
DAV:   7    -0.124208978328E+03    0.19919E-01   -0.14080E-01  2678   0.398E+00    0.105E+00
DAV:   8    -0.124204981641E+03    0.39967E-02   -0.30415E-02  3540   0.308E+00    0.731E-01
DAV:   9    -0.124204494610E+03    0.48703E-03   -0.84697E-03  3284   0.110E+00    0.396E-01
DAV:  10    -0.124203771418E+03    0.72319E-03   -0.12604E-03  3516   0.763E-01    0.235E-01
DAV:  11    -0.124203888556E+03   -0.11714E-03   -0.11899E-03  2436   0.409E-01    0.142E-01
DAV:  12    -0.124203849190E+03    0.39366E-04   -0.30606E-04  2280   0.276E-01    0.868E-02
DAV:  13    -0.124203856739E+03   -0.75490E-05   -0.14397E-04  2448   0.106E-01    0.544E-02
DAV:  14    -0.124203864171E+03   -0.74317E-05   -0.55590E-05  2227   0.863E-02    0.206E-02
DAV:  15    -0.124203875462E+03   -0.11292E-04   -0.10372E-05  2166   0.460E-02    0.923E-03
DAV:  16    -0.124203891825E+03   -0.16363E-04   -0.41325E-06  1571   0.189E-02    0.408E-03
DAV:  17    -0.124203902674E+03   -0.10849E-04   -0.21556E-06  1301   0.153E-02    0.544E-03
DAV:  18    -0.124203912495E+03   -0.98206E-05   -0.11875E-06  1273   0.104E-02    0.296E-03
DAV:  19    -0.124203918805E+03   -0.63101E-05   -0.78333E-07  1235   0.834E-03    0.248E-03
DAV:  20    -0.124203925591E+03   -0.67863E-05   -0.66324E-07  1273   0.671E-03    0.174E-03
DAV:  21    -0.124203931779E+03   -0.61881E-05   -0.67101E-07  1243   0.367E-03    0.135E-03
DAV:  22    -0.124203934445E+03   -0.26654E-05   -0.29365E-07  1195   0.445E-03    0.127E-03
DAV:  23    -0.124203936942E+03   -0.24974E-05   -0.27163E-07  1210   0.309E-03    0.932E-04
DAV:  24    -0.124203937930E+03   -0.98743E-06   -0.89818E-08  1147   0.180E-03
  11 F= -.12420394E+03 E0= -.12413157E+03  d E =0.207476E+00
       N       E                     dE             d eps       ncg     rms          rms(c)
DAV:   1    -0.124599028220E+03   -0.39509E+00   -0.31900E+01  1992   0.108E+01    0.140E+00
DAV:   2    -0.124659024696E+03   -0.59996E-01   -0.10638E+00  3140   0.563E+00    0.133E+00
DAV:   3    -0.124820630487E+03   -0.16161E+00   -0.11933E+00  3368   0.774E+00    0.704E+00
DAV:   4    -0.124643728466E+03    0.17690E+00   -0.86568E-01  2504   0.156E+00    0.933E-01
DAV:   5    -0.124670626515E+03   -0.26898E-01   -0.18603E-01  2320   0.370E+00    0.376E+00
DAV:   6    -0.124645651136E+03    0.24975E-01   -0.28058E-01  2973   0.592E-01    0.164E+00
DAV:   7    -0.124643492395E+03    0.21587E-02   -0.35774E-02  2326   0.253E+00    0.309E-01
DAV:   8    -0.124643520187E+03   -0.27793E-04   -0.54370E-03  3028   0.176E+00    0.389E-01
DAV:   9    -0.124643081443E+03    0.43874E-03   -0.20735E-03  3388   0.590E-01    0.118E-01
DAV:  10    -0.124643098257E+03   -0.16814E-04   -0.41705E-04  2688   0.172E-01    0.706E-02
DAV:  11    -0.124643090706E+03    0.75507E-05   -0.31999E-04  2244   0.262E-01    0.429E-02
DAV:  12    -0.124643076022E+03    0.14684E-04   -0.60536E-05  2734   0.128E-01    0.256E-02
DAV:  13    -0.124643079441E+03   -0.34187E-05   -0.27387E-05  3064   0.479E-02    0.105E-02
DAV:  14    -0.124643081698E+03   -0.22568E-05   -0.62780E-06  2195   0.326E-02    0.589E-03
DAV:  15    -0.124643083746E+03   -0.20479E-05   -0.13325E-06  1138   0.153E-02    0.363E-03
DAV:  16    -0.124643086632E+03   -0.28863E-05   -0.10503E-06  1241   0.896E-03    0.186E-03
DAV:  17    -0.124643088119E+03   -0.14866E-05   -0.36073E-07  1147   0.709E-03    0.933E-04
DAV:  18    -0.124643089140E+03   -0.10215E-05   -0.21881E-07  1099   0.417E-03    0.574E-04
DAV:  19    -0.124643090574E+03   -0.14335E-05   -0.19915E-07  1177   0.224E-03    0.844E-04
DAV:  20    -0.124643091620E+03   -0.10469E-05   -0.98831E-08  1123   0.217E-03    0.700E-04
DAV:  21    -0.124643093291E+03   -0.16706E-05   -0.20291E-07  1210   0.210E-03    0.502E-04
DAV:  22    -0.124643093600E+03   -0.30908E-06   -0.33047E-08  1115   0.124E-03
  12 F= -.12464309E+03 E0= -.12456707E+03  d E =-.231679E+00
       N       E                     dE             d eps       ncg     rms          rms(c)
DAV:   1    -0.124693323064E+03   -0.50230E-01   -0.14201E+01  1992   0.719E+00    0.104E+00
DAV:   2    -0.124710659327E+03   -0.17336E-01   -0.47857E-01  3124   0.414E+00    0.865E-01
DAV:   3    -0.124756606343E+03   -0.45947E-01   -0.30986E-01  3296   0.606E+00    0.362E+00
DAV:   4    -0.124706707498E+03    0.49899E-01   -0.21667E-01  2750   0.124E+00    0.940E-01
DAV:   5    -0.124709903232E+03   -0.31957E-02   -0.57086E-02  2726   0.258E+00    0.198E+00
DAV:   6    -0.124708416081E+03    0.14872E-02   -0.12794E-01  2846   0.391E-01    0.170E+00
DAV:   7    -0.124703282537E+03    0.51335E-02   -0.28367E-02  2398   0.180E+00    0.215E-01
DAV:   8    -0.124703386253E+03   -0.10372E-03   -0.26182E-03  2686   0.161E+00    0.261E-01
DAV:   9    -0.124703213349E+03    0.17290E-03   -0.12611E-03  3580   0.559E-01    0.463E-02
DAV:  10    -0.124703209477E+03    0.38716E-05   -0.26506E-04  3078   0.189E-01    0.333E-02
DAV:  11    -0.124703209502E+03   -0.24214E-07   -0.13451E-04  2326   0.134E-01    0.373E-02
DAV:  12    -0.124703206824E+03    0.26774E-05   -0.32166E-05  2710   0.620E-02    0.205E-02
DAV:  13    -0.124703208791E+03   -0.19670E-05   -0.13491E-05  2207   0.473E-02    0.907E-03
DAV:  14    -0.124703209813E+03   -0.10219E-05   -0.38231E-06  1681   0.266E-02    0.369E-03
DAV:  15    -0.124703210873E+03   -0.10594E-05   -0.71833E-07  1225   0.107E-02    0.192E-03
DAV:  16    -0.124703212258E+03   -0.13851E-05   -0.57114E-07  1129   0.726E-03    0.160E-03
DAV:  17    -0.124703212764E+03   -0.50600E-06   -0.26648E-07  1131   0.453E-03
  13 F= -.12470321E+03 E0= -.12462448E+03  d E =-.291799E+00
       N       E                     dE             d eps       ncg     rms          rms(c)
DAV:   1    -0.124711552594E+03   -0.83403E-02   -0.12652E+00  1992   0.215E+00    0.335E-01
DAV:   2    -0.124712875220E+03   -0.13226E-02   -0.42225E-02  3212   0.153E+00    0.370E-01
DAV:   3    -0.124717302750E+03   -0.44275E-02   -0.25278E-02  3396   0.141E+00    0.120E+00
DAV:   4    -0.124712566705E+03    0.47360E-02   -0.22122E-02  3596   0.667E-01    0.541E-01
DAV:   5    -0.124716121398E+03   -0.35547E-02   -0.31025E-02  2380   0.674E-01    0.157E+00
DAV:   6    -0.124711217487E+03    0.49039E-02   -0.24543E-02  3220   0.399E-01    0.165E-01
DAV:   7    -0.124711785979E+03   -0.56849E-03   -0.10988E-03  2308   0.601E-01    0.122E-01
DAV:   8    -0.124711760037E+03    0.25942E-04   -0.40439E-04  2812   0.566E-01    0.788E-02
DAV:   9    -0.124711727485E+03    0.32552E-04   -0.19044E-04  3324   0.238E-01    0.390E-02
DAV:  10    -0.124711738574E+03   -0.11089E-04   -0.61208E-05  2215   0.587E-02    0.261E-02
DAV:  11    -0.124711735760E+03    0.28134E-05   -0.18243E-05  2268   0.573E-02    0.203E-02
DAV:  12    -0.124711735552E+03    0.20856E-06   -0.37747E-06  1437   0.264E-02
  14 F= -.12471174E+03 E0= -.12463383E+03  d E =-.300321E+00
       N       E                     dE             d eps       ncg     rms          rms(c)
DAV:   1    -0.124896052742E+03   -0.18432E+00   -0.78664E+01  1992   0.140E+01    0.214E+00
DAV:   2    -0.126207971363E+03   -0.13119E+01   -0.78349E+00  2957   0.467E+00    0.163E+01
DAV:   3    -0.125155002644E+03    0.10530E+01   -0.25175E+00  3000   0.647E+00    0.477E+00
DAV:   4    -0.125105465229E+03    0.49537E-01   -0.43036E-01  2455   0.314E+00    0.218E+00
DAV:   5    -0.125105806817E+03   -0.34159E-03   -0.28955E-02  2486   0.795E-01    0.219E+00
DAV:   6    -0.125110023951E+03   -0.42171E-02   -0.10382E-01  2384   0.432E-01    0.288E+00
DAV:   7    -0.125097203943E+03    0.12820E-01   -0.69476E-02  2391   0.172E+00    0.139E+00
DAV:   8    -0.125095872569E+03    0.13314E-02   -0.18222E-02  2360   0.235E+00    0.535E-01
DAV:   9    -0.125097335805E+03   -0.14632E-02   -0.64233E-03  3424   0.659E-01    0.233E-01
DAV:  10    -0.125097555501E+03   -0.21970E-03   -0.85225E-04  2952   0.361E-01    0.259E-01
DAV:  11    -0.125097461351E+03    0.94150E-04   -0.33793E-04  2223   0.340E-01    0.176E-01
DAV:  12    -0.125097411717E+03    0.49634E-04   -0.21679E-04  2286   0.289E-01    0.750E-02
DAV:  13    -0.125097395551E+03    0.16167E-04   -0.98814E-05  2983   0.969E-02    0.481E-02
DAV:  14    -0.125097402803E+03   -0.72525E-05   -0.30264E-05  2190   0.560E-02    0.346E-02
DAV:  15    -0.125097421827E+03   -0.19023E-04   -0.97682E-06  2142   0.273E-02    0.144E-02
DAV:  16    -0.125097445182E+03   -0.23355E-04   -0.41085E-06  1358   0.200E-02    0.593E-03
DAV:  17    -0.125097458434E+03   -0.13253E-04   -0.18457E-06  1367   0.152E-02    0.584E-03
DAV:  18    -0.125097469923E+03   -0.11489E-04   -0.10454E-06  1284   0.593E-03    0.340E-03
DAV:  19    -0.125097480208E+03   -0.10285E-04   -0.87385E-07  1285   0.680E-03    0.133E-03
DAV:  20    -0.125097484847E+03   -0.46390E-05   -0.43793E-07  1341   0.539E-03    0.164E-03
DAV:  21    -0.125097488629E+03   -0.37818E-05   -0.28263E-07  1193   0.440E-03    0.186E-03
DAV:  22    -0.125097490321E+03   -0.16922E-05   -0.15376E-07  1177   0.308E-03    0.143E-03
DAV:  23    -0.125097492195E+03   -0.18743E-05   -0.18797E-07  1202   0.297E-03    0.895E-04
DAV:  24    -0.125097492739E+03   -0.54319E-06   -0.72152E-08  1156   0.183E-03
  15 F= -.12509749E+03 E0= -.12502762E+03  d E =-.385757E+00
       N       E                     dE             d eps       ncg     rms          rms(c)
DAV:   1    -0.122607778923E+03    0.24897E+01   -0.68212E+02  1993   0.431E+01    0.102E+01
DAV:   2    -0.137272226028E+03   -0.14664E+02   -0.93635E+01  3271   0.241E+01    0.240E+01
DAV:   3    -0.126646251678E+03    0.10626E+02   -0.58890E+00  3599   0.337E+01    0.489E+00
DAV:   4    -0.126960085444E+03   -0.31383E+00   -0.31570E+00  3384   0.227E+01    0.987E+00
DAV:   5    -0.126895007910E+03    0.65078E-01   -0.51657E-01  2383   0.293E+00    0.982E+00
DAV:   6    -0.126847540438E+03    0.47467E-01   -0.24067E-02  2544   0.355E+00    0.967E+00
DAV:   7    -0.126839896720E+03    0.76437E-02   -0.18433E-02  2400   0.508E-01    0.965E+00
DAV:   8    -0.126804772528E+03    0.35124E-01   -0.33850E-02  2224   0.218E+00    0.945E+00
DAV:   9    -0.126651378503E+03    0.15339E+00   -0.97691E-01  2376   0.543E+00    0.496E+00
DAV:  10    -0.127131024091E+03   -0.47965E+00   -0.10906E+00  2608   0.123E+01    0.114E+01
DAV:  11    -0.126832118455E+03    0.29891E+00   -0.46349E-01  3144   0.515E+00    0.914E+00
DAV:  12    -0.126574753611E+03    0.25736E+00   -0.58642E-01  2728   0.760E+00    0.295E+00
DAV:  13    -0.127033244524E+03   -0.45849E+00   -0.72405E-01  2472   0.694E+00    0.120E+01
DAV:  14    -0.126785983949E+03    0.24726E+00   -0.30396E-01  2360   0.365E+00    0.972E+00
DAV:  15    -0.126673372563E+03    0.11261E+00   -0.10619E-01  2608   0.255E+00    0.674E+00
DAV:  16    -0.126616681235E+03    0.56691E-01   -0.15535E-01  2615   0.180E+00    0.359E+00
DAV:  17    -0.126633856147E+03   -0.17175E-01   -0.22881E-02  2351   0.121E+00    0.290E+00
DAV:  18    -0.126635342454E+03   -0.14863E-02   -0.64338E-03  2984   0.698E-01    0.246E+00
DAV:  19    -0.126608783714E+03    0.26559E-01   -0.11106E-02  3208   0.133E+00    0.195E+00
DAV:  20    -0.126589195413E+03    0.19588E-01   -0.17472E-02  2664   0.108E+00    0.148E+00
DAV:  21    -0.126587708048E+03    0.14874E-02   -0.53833E-03  2344   0.436E-01    0.136E+00
DAV:  22    -0.126584280485E+03    0.34276E-02   -0.10113E-03  2928   0.256E-01    0.127E+00
DAV:  23    -0.126574391035E+03    0.98894E-02   -0.35541E-03  2464   0.721E-01    0.105E+00
DAV:  24    -0.126564999564E+03    0.93915E-02   -0.88334E-03  2744   0.846E-01    0.776E-01
DAV:  25    -0.126561363130E+03    0.36364E-02   -0.51995E-03  2422   0.410E-01    0.586E-01
DAV:  26    -0.126558780978E+03    0.25822E-02   -0.12011E-03  3158   0.324E-01    0.452E-01
DAV:  27    -0.126556338599E+03    0.24424E-02   -0.30220E-03  2750   0.493E-01    0.286E-01
DAV:  28    -0.126555246450E+03    0.10921E-02   -0.39737E-03  2438   0.505E-01    0.825E-02
DAV:  29    -0.126555337125E+03   -0.90675E-04   -0.16417E-03  2304   0.204E-01    0.361E-02
DAV:  30    -0.126555371606E+03   -0.34481E-04   -0.87839E-05  2086   0.673E-02    0.384E-02
DAV:  31    -0.126555397822E+03   -0.26216E-04   -0.51031E-05  3520   0.792E-02    0.356E-02
DAV:  32    -0.126555417552E+03   -0.19730E-04   -0.22354E-05  2808   0.295E-02    0.286E-02
DAV:  33    -0.126555438302E+03   -0.20750E-04   -0.66758E-06  1744   0.256E-02    0.369E-02
DAV:  34    -0.126555455548E+03   -0.17246E-04   -0.30755E-05  2325   0.602E-02    0.166E-02
DAV:  35    -0.126555483176E+03   -0.27628E-04   -0.11086E-05  2216   0.420E-02    0.200E-02
DAV:  36    -0.126555484590E+03   -0.14135E-05   -0.35460E-06  1728   0.202E-02    0.147E-02
DAV:  37    -0.126555493380E+03   -0.87901E-05   -0.11726E-05  2430   0.338E-02    0.451E-03
DAV:  38    -0.126555506956E+03   -0.13576E-04   -0.94717E-06  2189   0.221E-02    0.740E-03
DAV:  39    -0.126555507728E+03   -0.77230E-06   -0.34213E-06  1792   0.161E-02
  16 F= -.12655551E+03 E0= -.12649058E+03  d E =-.184377E+01
       N       E                     dE             d eps       ncg     rms          rms(c)
DAV:   1    -0.110979652044E+03    0.15576E+02   -0.25234E+03  2224   0.964E+01    0.300E+01
DAV:   2    -0.154251781526E+03   -0.43272E+02   -0.31659E+02  3232   0.667E+01    0.288E+01
DAV:   3    -0.136662411271E+03    0.17589E+02   -0.35898E+01  3296   0.871E+01    0.213E+01
DAV:   4    -0.132218169469E+03    0.44442E+01   -0.68142E+00  3072   0.590E+01    0.175E+01
DAV:   5    -0.141175063910E+03   -0.89569E+01   -0.35811E+01  3016   0.228E+01    0.148E+01
DAV:   6    -0.133335090167E+03    0.78400E+01   -0.29598E+00  2791   0.129E+01    0.119E+01
DAV:   7    -0.134013369594E+03   -0.67828E+00   -0.11535E+00  2240   0.339E+00    0.118E+01
DAV:   8    -0.131742631947E+03    0.22707E+01   -0.27112E-01  2648   0.290E+00    0.109E+01
DAV:   9    -0.131670287618E+03    0.72344E-01   -0.67037E+00  2952   0.202E+00    0.145E+01
DAV:  10    -0.130535172843E+03    0.11351E+01   -0.10388E+00  2544   0.111E+01    0.731E+00
DAV:  11    -0.130889569720E+03   -0.35440E+00   -0.93900E-01  2984   0.702E+00    0.111E+01
DAV:  12    -0.130562775518E+03    0.32679E+00   -0.30131E+00  2775   0.396E+00    0.939E+00
DAV:  13    -0.130410425522E+03    0.15235E+00   -0.19741E-01  2816   0.220E+00    0.533E+00
DAV:  14    -0.130463279056E+03   -0.52854E-01   -0.23896E-02  2352   0.120E+00    0.704E+00
DAV:  15    -0.130329291825E+03    0.13399E+00   -0.28272E-01  3080   0.101E+00    0.222E+00
DAV:  16    -0.130368377463E+03   -0.39086E-01   -0.11120E-02  2864   0.973E-01    0.128E+00
DAV:  17    -0.130404493610E+03   -0.36116E-01   -0.28933E-02  3592   0.683E-01    0.347E+00
DAV:  18    -0.130353625883E+03    0.50868E-01   -0.37754E-02  2903   0.638E-01    0.632E-01
DAV:  19    -0.130388676900E+03   -0.35051E-01   -0.12915E-02  2800   0.567E-01    0.283E+00
DAV:  20    -0.130381827372E+03    0.68495E-02   -0.32710E-03  2735   0.410E-01    0.294E+00
DAV:  21    -0.130353328988E+03    0.28498E-01   -0.48874E-02  3000   0.193E-01    0.186E-01
DAV:  22    -0.130368781855E+03   -0.15453E-01   -0.34234E-03  2808   0.322E-01    0.101E+00
DAV:  23    -0.130368715210E+03    0.66645E-04   -0.65188E-03  2879   0.166E-01    0.101E+00
DAV:  24    -0.130367056423E+03    0.16588E-02   -0.94145E-04  2774   0.134E-01    0.645E-01
DAV:  25    -0.130366394591E+03    0.66183E-03   -0.52214E-03  3015   0.103E-01    0.225E-01
DAV:  26    -0.130367418920E+03   -0.10243E-02   -0.36684E-04  2775   0.903E-02    0.119E-02
DAV:  27    -0.130367749208E+03   -0.33029E-03   -0.31123E-05  2408   0.494E-02    0.180E-02
DAV:  28    -0.130368011753E+03   -0.26254E-03   -0.20294E-05  2360   0.361E-02    0.702E-02
DAV:  29    -0.130368259894E+03   -0.24814E-03   -0.40608E-05  2256   0.328E-02    0.207E-01
DAV:  30    -0.130368158290E+03    0.10160E-03   -0.60880E-05  2128   0.228E-02    0.233E-02
DAV:  31    -0.130368249775E+03   -0.91486E-04   -0.22377E-05  1719   0.155E-02    0.597E-02
DAV:  32    -0.130368258790E+03   -0.90145E-05   -0.15284E-05  1672   0.136E-02    0.230E-02
DAV:  33    -0.130368291007E+03   -0.32217E-04   -0.28636E-06  1336   0.961E-03    0.446E-02
DAV:  34    -0.130368296784E+03   -0.57769E-05   -0.33546E-06  1440   0.544E-03    0.336E-03
DAV:  35    -0.130368306071E+03   -0.92873E-05   -0.73379E-07  1312   0.486E-03    0.674E-03
DAV:  36    -0.130368312319E+03   -0.62477E-05   -0.48342E-07  1240   0.353E-03    0.809E-03
DAV:  37    -0.130368319097E+03   -0.67779E-05   -0.44081E-07  1312   0.348E-03    0.126E-02
DAV:  38    -0.130368321027E+03   -0.19305E-05   -0.22012E-07  1192   0.229E-03    0.424E-03
DAV:  39    -0.130368323566E+03   -0.25390E-05   -0.11014E-07  1200   0.189E-03    0.711E-03
DAV:  40    -0.130368324198E+03   -0.63208E-06   -0.83439E-08  1144   0.144E-03
  17 F= -.13036832E+03 E0= -.13029640E+03  d E =-.565659E+01
       N       E                     dE             d eps       ncg     rms          rms(c)
DAV:   1    -0.130132708598E+03    0.23561E+00   -0.30521E+02  2011   0.258E+01    0.787E+00
DAV:   2    -0.144954406386E+03   -0.14822E+02   -0.35515E+01  3655   0.300E+01    0.335E+01
DAV:   3    -0.130418889651E+03    0.14536E+02   -0.45832E+01  3277   0.324E+01    0.143E+01
DAV:   4    -0.130008010519E+03    0.41088E+00   -0.16614E+00  3288   0.127E+01    0.127E+01
DAV:   5    -0.130504426315E+03   -0.49642E+00   -0.64536E+00  3184   0.798E+00    0.905E+00
DAV:   6    -0.129921405220E+03    0.58302E+00   -0.34880E-01  2800   0.498E+00    0.860E+00
DAV:   7    -0.129758017282E+03    0.16339E+00   -0.23603E+00  2512   0.572E+00    0.887E+00
DAV:   8    -0.129577213250E+03    0.18080E+00   -0.34873E-01  2742   0.370E+00    0.659E-01
DAV:   9    -0.129604352293E+03   -0.27139E-01   -0.24465E-02  2879   0.193E+00    0.115E+00
DAV:  10    -0.129604483584E+03   -0.13129E-03   -0.13332E-02  2768   0.591E-01    0.726E-01
DAV:  11    -0.129604660445E+03   -0.17686E-03   -0.33899E-03  2406   0.389E-01    0.280E-01
DAV:  12    -0.129606732778E+03   -0.20723E-02   -0.28779E-03  2423   0.480E-01    0.678E-01
DAV:  13    -0.129606200527E+03    0.53225E-03   -0.30693E-03  2222   0.194E-01    0.290E-01
DAV:  14    -0.129606384827E+03   -0.18430E-03   -0.47733E-04  2728   0.172E-01    0.728E-02
DAV:  15    -0.129606835776E+03   -0.45095E-03   -0.12139E-04  2888   0.127E-01    0.242E-02
DAV:  16    -0.129607274219E+03   -0.43844E-03   -0.10800E-04  2735   0.917E-02    0.244E-02
DAV:  17    -0.129607642499E+03   -0.36828E-03   -0.13355E-04  2359   0.786E-02    0.150E-01
DAV:  18    -0.129607705857E+03   -0.63358E-04   -0.69380E-05  2775   0.644E-02    0.450E-02
DAV:  19    -0.129607904497E+03   -0.19864E-03   -0.94248E-05  2758   0.518E-02    0.957E-02
DAV:  20    -0.129607967939E+03   -0.63442E-04   -0.25585E-05  2670   0.304E-02    0.624E-02
DAV:  21    -0.129607986748E+03   -0.18810E-04   -0.16012E-05  1719   0.213E-02    0.129E-02
DAV:  22    -0.129608002356E+03   -0.15608E-04   -0.50816E-06  1622   0.154E-02    0.188E-02
DAV:  23    -0.129608016543E+03   -0.14187E-04   -0.13449E-06  1374   0.103E-02    0.252E-02
DAV:  24    -0.129608025868E+03   -0.93244E-05   -0.11782E-06  1366   0.793E-03    0.155E-02
DAV:  25    -0.129608030653E+03   -0.47851E-05   -0.16020E-06  1415   0.681E-03    0.752E-03
DAV:  26    -0.129608036553E+03   -0.59000E-05   -0.89813E-07  1351   0.395E-03    0.133E-02
DAV:  27    -0.129608038717E+03   -0.21643E-05   -0.27262E-07  1174   0.344E-03    0.511E-03
DAV:  28    -0.129608040482E+03   -0.17650E-05   -0.35913E-07  1262   0.280E-03    0.349E-03
DAV:  29    -0.129608041142E+03   -0.65990E-06   -0.11665E-07  1159   0.186E-03
  18 F= -.12960804E+03 E0= -.12953956E+03  d E =-.489631E+01
       N       E                     dE             d eps       ncg     rms          rms(c)
DAV:   1    -0.130650069426E+03   -0.10420E+01   -0.15899E+02  1992   0.199E+01    0.113E+01
DAV:   2    -0.147432000894E+03   -0.16782E+02   -0.66917E+01  3760   0.376E+01    0.202E+01
DAV:   3    -0.136228791760E+03    0.11203E+02   -0.67792E+00  3446   0.489E+01    0.150E+01
DAV:   4    -0.134123421828E+03    0.21054E+01   -0.14843E+00  2992   0.260E+01    0.132E+01
DAV:   5    -0.130374928070E+03    0.37485E+01   -0.21412E+00  3167   0.862E+00    0.734E+00
DAV:   6    -0.130359144872E+03    0.15783E-01   -0.78619E-01  2663   0.262E+00    0.201E+00
DAV:   7    -0.130448845110E+03   -0.89700E-01   -0.13902E-01  2992   0.227E+00    0.541E+00
DAV:   8    -0.130352081911E+03    0.96763E-01   -0.74323E-02  2760   0.120E+00    0.123E+00
DAV:   9    -0.130363372000E+03   -0.11290E-01   -0.13273E-02  2424   0.156E+00    0.217E-01
DAV:  10    -0.130369863536E+03   -0.64915E-02   -0.62407E-03  2256   0.116E+00    0.681E-01
DAV:  11    -0.130370121763E+03   -0.25823E-03   -0.16606E-03  2248   0.460E-01    0.772E-01
DAV:  12    -0.130368026475E+03    0.20953E-02   -0.52894E-03  2320   0.214E-01    0.178E-01
DAV:  13    -0.130369174472E+03   -0.11480E-02   -0.35286E-04  2808   0.174E-01    0.225E-01
DAV:  14    -0.130369275991E+03   -0.10152E-03   -0.32379E-04  2208   0.129E-01    0.160E-01
DAV:  15    -0.130369449332E+03   -0.17334E-03   -0.11653E-04  2206   0.924E-02    0.283E-02
DAV:  16    -0.130369650402E+03   -0.20107E-03   -0.30368E-05  2608   0.621E-02    0.617E-02
DAV:  17    -0.130369839147E+03   -0.18874E-03   -0.15331E-05  2606   0.380E-02    0.511E-02
DAV:  18    -0.130369964246E+03   -0.12510E-03   -0.27402E-05  1536   0.235E-02    0.654E-02
DAV:  19    -0.130370061515E+03   -0.97269E-04   -0.11632E-05  1912   0.174E-02    0.390E-02
DAV:  20    -0.130370111351E+03   -0.49836E-04   -0.47886E-06  1432   0.212E-02    0.153E-02
DAV:  21    -0.130370148704E+03   -0.37353E-04   -0.20400E-06  1376   0.103E-02    0.393E-03
DAV:  22    -0.130370176572E+03   -0.27869E-04   -0.89013E-07  1360   0.739E-03    0.335E-03
DAV:  23    -0.130370188173E+03   -0.11600E-04   -0.63373E-07  1240   0.727E-03    0.606E-03
DAV:  24    -0.130370198075E+03   -0.99021E-05   -0.48615E-07  1296   0.517E-03    0.107E-02
DAV:  25    -0.130370204172E+03   -0.60968E-05   -0.53427E-07  1248   0.300E-03    0.402E-03
DAV:  26    -0.130370205992E+03   -0.18202E-05   -0.18863E-07  1264   0.305E-03    0.337E-03
DAV:  27    -0.130370208246E+03   -0.22543E-05   -0.10504E-07  1166   0.164E-03    0.222E-03
DAV:  28    -0.130370210364E+03   -0.21180E-05   -0.75973E-08  1167   0.157E-03    0.813E-04
DAV:  29    -0.130370211070E+03   -0.70606E-06   -0.49164E-08  1143   0.122E-03
  19 F= -.13037021E+03 E0= -.13029919E+03  d E =-.565848E+01
       N       E                     dE             d eps       ncg     rms          rms(c)
DAV:   1    -0.130417546884E+03   -0.47337E-01   -0.41565E+00  2029   0.302E+00    0.301E+00
DAV:   2    -0.133919708584E+03   -0.35022E+01   -0.21069E+01  3807   0.964E+00    0.124E+01
DAV:   3    -0.130752874579E+03    0.31668E+01   -0.63801E-01  3616   0.126E+01    0.104E+01
DAV:   4    -0.130359415729E+03    0.39346E+00   -0.88144E-01  3168   0.466E+00    0.382E+00
DAV:   5    -0.130374295745E+03   -0.14880E-01   -0.12796E-01  3200   0.151E+00    0.920E-01
DAV:   6    -0.130427762560E+03   -0.53467E-01   -0.20822E-02  3024   0.661E-01    0.320E+00
DAV:   7    -0.130394703600E+03    0.33059E-01   -0.20608E-02  2640   0.807E-01    0.137E+00
DAV:   8    -0.130400350296E+03   -0.56467E-02   -0.60462E-02  2952   0.448E-01    0.144E+00
DAV:   9    -0.130400046722E+03    0.30357E-03   -0.21104E-03  2967   0.375E-01    0.103E+00
DAV:  10    -0.130397743796E+03    0.23029E-02   -0.45077E-04  2936   0.172E-01    0.712E-01
DAV:  11    -0.130396662974E+03    0.10808E-02   -0.58455E-04  2848   0.140E-01    0.140E-01
DAV:  12    -0.130397477917E+03   -0.81494E-03   -0.26621E-04  2552   0.104E-01    0.488E-02
DAV:  13    -0.130397586212E+03   -0.10830E-03   -0.83788E-05  2511   0.747E-02    0.810E-02
DAV:  14    -0.130397597090E+03   -0.10878E-04   -0.14352E-05  2166   0.396E-02    0.366E-02
DAV:  15    -0.130397618302E+03   -0.21212E-04   -0.10368E-05  1504   0.237E-02    0.307E-02
DAV:  16    -0.130397641356E+03   -0.23055E-04   -0.51240E-06  1592   0.127E-02    0.293E-02
DAV:  17    -0.130397645267E+03   -0.39104E-05   -0.17961E-06  1424   0.124E-02    0.996E-03
DAV:  18    -0.130397664518E+03   -0.19251E-04   -0.94411E-07  1319   0.868E-03    0.460E-03
DAV:  19    -0.130397680106E+03   -0.15588E-04   -0.11082E-06  1360   0.477E-03    0.199E-02
DAV:  20    -0.130397684113E+03   -0.40068E-05   -0.65968E-07  1336   0.543E-03    0.969E-03
DAV:  21    -0.130397689581E+03   -0.54681E-05   -0.48263E-07  1270   0.435E-03    0.235E-03
DAV:  22    -0.130397693114E+03   -0.35331E-05   -0.18551E-07  1215   0.261E-03    0.182E-03
DAV:  23    -0.130397694901E+03   -0.17861E-05   -0.97347E-08  1167   0.204E-03    0.151E-03
DAV:  24    -0.130397695510E+03   -0.60949E-06   -0.52060E-08  1152   0.156E-03
  20 F= -.13039770E+03 E0= -.13032626E+03  d E =-.568596E+01
       N       E                     dE             d eps       ncg     rms          rms(c)
DAV:   1    -0.130693978443E+03   -0.29628E+00   -0.97528E+01  2003   0.134E+01    0.102E+01
DAV:   2    -0.146407150596E+03   -0.15713E+02   -0.54544E+01  3784   0.305E+01    0.202E+01
DAV:   3    -0.135182233621E+03    0.11225E+02   -0.52776E+00  3480   0.426E+01    0.154E+01
DAV:   4    -0.132896929239E+03    0.22853E+01   -0.12584E+00  2880   0.241E+01    0.136E+01
DAV:   5    -0.131230322489E+03    0.16666E+01   -0.23525E+00  3168   0.912E+00    0.109E+01
DAV:   6    -0.130467966558E+03    0.76236E+00   -0.34917E-01  2758   0.238E+00    0.108E+01
DAV:   7    -0.130427723519E+03    0.40243E-01   -0.40509E+00  2919   0.281E+00    0.109E+01
DAV:   8    -0.130017835794E+03    0.40989E+00   -0.38902E-01  3087   0.261E+00    0.677E+00
DAV:   9    -0.129990715147E+03    0.27121E-01   -0.13137E-02  2206   0.600E-01    0.620E+00
DAV:  10    -0.130089491336E+03   -0.98776E-01   -0.54343E-02  2256   0.801E-01    0.827E+00
DAV:  11    -0.129850969031E+03    0.23852E+00   -0.44909E-01  2991   0.109E+00    0.110E+00
DAV:  12    -0.129922983232E+03   -0.72014E-01   -0.11348E-02  2918   0.110E+00    0.150E+00
DAV:  13    -0.129920123137E+03    0.28601E-02   -0.39472E-03  2592   0.683E-01    0.139E+00
DAV:  14    -0.129917714122E+03    0.24090E-02   -0.60746E-02  2816   0.433E-01    0.123E+00
DAV:  15    -0.129916162559E+03    0.15516E-02   -0.34380E-03  2872   0.405E-01    0.130E-01
DAV:  16    -0.129920849204E+03   -0.46866E-02   -0.27153E-03  2808   0.283E-01    0.110E+00
DAV:  17    -0.129916330161E+03    0.45190E-02   -0.15875E-03  2776   0.163E-01    0.369E-01
DAV:  18    -0.129917090547E+03   -0.76039E-03   -0.18569E-04  2736   0.897E-02    0.233E-01
DAV:  19    -0.129917493949E+03   -0.40340E-03   -0.91111E-05  2592   0.771E-02    0.977E-02
DAV:  20    -0.129917823050E+03   -0.32910E-03   -0.39963E-05  2776   0.435E-02    0.102E-01
DAV:  21    -0.129917971544E+03   -0.14849E-03   -0.29657E-05  2264   0.365E-02    0.169E-02
DAV:  22    -0.129918130497E+03   -0.15895E-03   -0.18842E-05  2648   0.366E-02    0.158E-02
DAV:  23    -0.129918198876E+03   -0.68379E-04   -0.59822E-06  1456   0.159E-02    0.299E-02
DAV:  24    -0.129918247013E+03   -0.48137E-04   -0.37147E-06  1392   0.158E-02    0.195E-02
DAV:  25    -0.129918266585E+03   -0.19572E-04   -0.56556E-06  1464   0.109E-02    0.370E-02
DAV:  26    -0.129918275417E+03   -0.88323E-05   -0.22586E-06  1288   0.953E-03    0.329E-02
DAV:  27    -0.129918278294E+03   -0.28773E-05   -0.12572E-06  1304   0.686E-03    0.891E-03
DAV:  28    -0.129918292939E+03   -0.14644E-04   -0.60141E-07  1328   0.668E-03    0.162E-03
DAV:  29    -0.129918297112E+03   -0.41728E-05   -0.42545E-07  1312   0.332E-03    0.108E-03
DAV:  30    -0.129918298306E+03   -0.11949E-05   -0.15918E-07  1176   0.303E-03    0.348E-03
DAV:  31    -0.129918301834E+03   -0.35280E-05   -0.84929E-08  1159   0.284E-03    0.609E-03
DAV:  32    -0.129918304765E+03   -0.29302E-05   -0.88712E-08  1199   0.160E-03    0.254E-03
DAV:  33    -0.129918305185E+03   -0.42043E-06   -0.35826E-08  1160   0.147E-03
  21 F= -.12991831E+03 E0= -.12984481E+03  d E =0.479390E+00
       N       E                     dE             d eps       ncg     rms          rms(c)
DAV:   1    -0.130987361806E+03   -0.10691E+01   -0.49802E+01  1993   0.904E+00    0.924E+00
DAV:   2    -0.145262830661E+03   -0.14275E+02   -0.43569E+01  3684   0.291E+01    0.182E+01
DAV:   3    -0.134956574567E+03    0.10306E+02   -0.37133E+00  2950   0.380E+01    0.143E+01
DAV:   4    -0.132822514008E+03    0.21341E+01   -0.15876E+00  3119   0.194E+01    0.128E+01
DAV:   5    -0.131481333599E+03    0.13412E+01   -0.70998E+00  3127   0.633E+00    0.104E+01
DAV:   6    -0.130778444853E+03    0.70289E+00   -0.25076E-01  2936   0.324E+00    0.959E+00
DAV:   7    -0.130550097433E+03    0.22835E+00   -0.20740E+00  2520   0.294E+00    0.788E+00
DAV:   8    -0.130436594152E+03    0.11350E+00   -0.33148E-01  2806   0.160E+00    0.775E-01
DAV:   9    -0.130463356719E+03   -0.26763E-01   -0.12013E-02  2507   0.139E+00    0.109E+00
DAV:  10    -0.130458908702E+03    0.44480E-02   -0.45462E-03  2924   0.403E-01    0.134E-01
DAV:  11    -0.130462683082E+03   -0.37744E-02   -0.28432E-03  2175   0.712E-01    0.765E-01
DAV:  12    -0.130460898321E+03    0.17848E-02   -0.12061E-03  2192   0.475E-01    0.480E-01
DAV:  13    -0.130461772155E+03   -0.87383E-03   -0.21513E-03  2558   0.218E-01    0.649E-01
DAV:  14    -0.130461352825E+03    0.41933E-03   -0.60800E-04  2687   0.120E-01    0.486E-01
DAV:  15    -0.130461062356E+03    0.29047E-03   -0.39453E-03  2472   0.108E-01    0.303E-01
DAV:  16    -0.130461660006E+03   -0.59765E-03   -0.26072E-04  2774   0.911E-02    0.287E-01
DAV:  17    -0.130461507320E+03    0.15269E-03   -0.68550E-05  2832   0.491E-02    0.131E-01
DAV:  18    -0.130461635176E+03   -0.12786E-03   -0.24780E-05  2224   0.449E-02    0.106E-01
DAV:  19    -0.130461725732E+03   -0.90556E-04   -0.25851E-05  2160   0.231E-02    0.316E-02
DAV:  20    -0.130461803912E+03   -0.78180E-04   -0.20217E-05  1680   0.205E-02    0.551E-02
DAV:  21    -0.130461833859E+03   -0.29947E-04   -0.99552E-06  2248   0.208E-02    0.512E-02
DAV:  22    -0.130461848514E+03   -0.14655E-04   -0.11421E-05  1520   0.105E-02    0.265E-02
DAV:  23    -0.130461862794E+03   -0.14280E-04   -0.37311E-06  1376   0.960E-03    0.170E-03
DAV:  24    -0.130461865967E+03   -0.31737E-05   -0.50663E-07  1304   0.665E-03    0.118E-03
DAV:  25    -0.130461871656E+03   -0.56889E-05   -0.39052E-07  1239   0.378E-03    0.258E-03
DAV:  26    -0.130461875177E+03   -0.35210E-05   -0.27647E-07  1224   0.332E-03    0.140E-03
DAV:  27    -0.130461875914E+03   -0.73650E-06   -0.10732E-07  1224   0.269E-03
  22 F= -.13046188E+03 E0= -.13038972E+03  d E =-.641804E-01
       N       E                     dE             d eps       ncg     rms          rms(c)
DAV:   1    -0.130651095878E+03   -0.18922E+00   -0.14378E+01  2012   0.823E+00    0.809E-01
DAV:   2    -0.131265975830E+03   -0.61488E+00   -0.19630E+00  3271   0.383E+00    0.114E+01
DAV:   3    -0.130603537071E+03    0.66244E+00   -0.10879E+00  2878   0.331E+00    0.993E-01
DAV:   4    -0.130666689723E+03   -0.63153E-01   -0.20455E-02  2608   0.953E-01    0.547E-01
DAV:   5    -0.130674792108E+03   -0.81024E-02   -0.92595E-03  2238   0.885E-01    0.426E-01
DAV:   6    -0.130674055377E+03    0.73673E-03   -0.24901E-03  2936   0.927E-01    0.197E-01
DAV:   7    -0.130674704348E+03   -0.64897E-03   -0.16719E-03  3079   0.100E+00    0.150E-01
DAV:   8    -0.130674585170E+03    0.11918E-03   -0.47372E-04  3176   0.684E-01    0.313E-02
DAV:   9    -0.130674619286E+03   -0.34117E-04   -0.25971E-04  2960   0.180E-01    0.311E-02
DAV:  10    -0.130674620535E+03   -0.12484E-05   -0.69480E-05  2296   0.120E-01    0.182E-02
DAV:  11    -0.130674626114E+03   -0.55790E-05   -0.30073E-05  2496   0.508E-02    0.607E-03
DAV:  12    -0.130674631320E+03   -0.52066E-05   -0.41662E-06  1944   0.170E-02    0.302E-03
DAV:  13    -0.130674633964E+03   -0.26434E-05   -0.18176E-06  1232   0.196E-02    0.231E-03
DAV:  14    -0.130674636547E+03   -0.25833E-05   -0.61947E-07  1264   0.105E-02    0.111E-03
DAV:  15    -0.130674639411E+03   -0.28640E-05   -0.40037E-07  1256   0.547E-03    0.678E-04
DAV:  16    -0.130674640605E+03   -0.11943E-05   -0.17763E-07  1200   0.394E-03    0.832E-04
DAV:  17    -0.130674642006E+03   -0.14006E-05   -0.17905E-07  1208   0.294E-03    0.857E-04
DAV:  18    -0.130674643997E+03   -0.19912E-05   -0.19077E-07  1247   0.170E-03    0.461E-04
DAV:  19    -0.130674644578E+03   -0.58039E-06   -0.66215E-08  1184   0.212E-03
  23 F= -.13067464E+03 E0= -.13060239E+03  d E =-.212769E+00
       N       E                     dE             d eps       ncg     rms          rms(c)
DAV:   1    -0.130747052103E+03   -0.72408E-01   -0.57956E+01  2012   0.167E+01    0.159E+00
DAV:   2    -0.132337902176E+03   -0.15909E+01   -0.64476E+00  3208   0.755E+00    0.120E+01
DAV:   3    -0.130800793725E+03    0.15371E+01   -0.10883E+00  2879   0.679E+00    0.261E+00
DAV:   4    -0.130836217443E+03   -0.35424E-01   -0.10269E-01  2528   0.258E+00    0.714E-01
DAV:   5    -0.130850248324E+03   -0.14031E-01   -0.17499E-02  2680   0.279E+00    0.599E-01
DAV:   6    -0.130868053896E+03   -0.17806E-01   -0.39524E-02  2448   0.349E+00    0.261E+00
DAV:   7    -0.130842463166E+03    0.25591E-01   -0.11922E-01  3192   0.237E+00    0.859E-01
DAV:   8    -0.130848987996E+03   -0.65248E-02   -0.90867E-03  3287   0.875E-01    0.646E-01
DAV:   9    -0.130847271131E+03    0.17169E-02   -0.37418E-03  2224   0.720E-01    0.657E-02
DAV:  10    -0.130847933470E+03   -0.66234E-03   -0.83820E-04  2224   0.265E-01    0.118E-01
DAV:  11    -0.130847915753E+03    0.17717E-04   -0.21533E-04  2344   0.191E-01    0.469E-02
DAV:  12    -0.130847918697E+03   -0.29441E-05   -0.56719E-05  2328   0.878E-02    0.156E-02
DAV:  13    -0.130847934715E+03   -0.16018E-04   -0.22531E-05  2208   0.608E-02    0.278E-02
DAV:  14    -0.130847938517E+03   -0.38024E-05   -0.76577E-06  2270   0.308E-02    0.383E-03
DAV:  15    -0.130847946523E+03   -0.80056E-05   -0.17452E-06  1328   0.170E-02    0.861E-03
DAV:  16    -0.130847953369E+03   -0.68462E-05   -0.12239E-06  1358   0.876E-03    0.278E-03
DAV:  17    -0.130847958223E+03   -0.48540E-05   -0.58853E-07  1280   0.821E-03    0.201E-03
DAV:  18    -0.130847963346E+03   -0.51231E-05   -0.45943E-07  1326   0.395E-03    0.116E-03
DAV:  19    -0.130847967657E+03   -0.43110E-05   -0.41133E-07  1279   0.347E-03    0.407E-03
DAV:  20    -0.130847970096E+03   -0.24393E-05   -0.25001E-07  1278   0.371E-03    0.133E-03
DAV:  21    -0.130847971587E+03   -0.14906E-05   -0.18059E-07  1215   0.189E-03    0.456E-04
DAV:  22    -0.130847972051E+03   -0.46444E-06   -0.67677E-08  1176   0.199E-03
  24 F= -.13084797E+03 E0= -.13077554E+03  d E =-.386096E+00
       N       E                     dE             d eps       ncg     rms          rms(c)
DAV:   1    -0.130934767853E+03   -0.86796E-01   -0.32626E+00  2021   0.389E+00    0.312E-01
DAV:   2    -0.131013668625E+03   -0.78901E-01   -0.13529E-01  3038   0.121E+00    0.534E+00
DAV:   3    -0.130917609454E+03    0.96059E-01   -0.77967E-02  3021   0.897E-01    0.335E-01
DAV:   4    -0.130939636644E+03   -0.22027E-01   -0.52756E-03  2231   0.122E+00    0.180E-01
DAV:   5    -0.130940363147E+03   -0.72650E-03   -0.10512E-03  2823   0.488E-01    0.126E-01
DAV:   6    -0.130940423426E+03   -0.60278E-04   -0.34528E-04  2750   0.439E-01    0.125E-01
DAV:   7    -0.130940310782E+03    0.11264E-03   -0.29805E-04  3262   0.337E-01    0.233E-02
DAV:   8    -0.130940355097E+03   -0.44316E-04   -0.16413E-04  2773   0.905E-02    0.137E-02
DAV:   9    -0.130940359156E+03   -0.40590E-05   -0.20103E-05  2472   0.447E-02    0.103E-02
DAV:  10    -0.130940360094E+03   -0.93796E-06   -0.93105E-06  2110   0.285E-02
  25 F= -.13094036E+03 E0= -.13086795E+03  d E =-.923880E-01
       N       E                     dE             d eps       ncg     rms          rms(c)
DAV:   1    -0.131117962790E+03   -0.17760E+00   -0.29425E+01  2011   0.118E+01    0.944E-01
DAV:   2    -0.131782989608E+03   -0.66503E+00   -0.24537E+00  3054   0.408E+00    0.116E+01
DAV:   3    -0.131105633036E+03    0.67736E+00   -0.10868E+00  3014   0.247E+00    0.898E-01
DAV:   4    -0.131170574513E+03   -0.64941E-01   -0.41015E-02  2151   0.381E+00    0.622E-01
DAV:   5    -0.131172327772E+03   -0.17533E-02   -0.84324E-03  2927   0.127E+00    0.386E-01
DAV:   6    -0.131172777994E+03   -0.45022E-03   -0.32160E-03  2382   0.131E+00    0.351E-01
DAV:   7    -0.131171970276E+03    0.80772E-03   -0.30684E-03  3062   0.110E+00    0.744E-02
DAV:   8    -0.131172225471E+03   -0.25519E-03   -0.19496E-03  2806   0.403E-01    0.477E-02
DAV:   9    -0.131172241952E+03   -0.16481E-04   -0.36945E-04  2384   0.155E-01    0.278E-02
DAV:  10    -0.131172243250E+03   -0.12981E-05   -0.53648E-05  2360   0.771E-02    0.193E-02
DAV:  11    -0.131172247027E+03   -0.37769E-05   -0.29250E-05  2270   0.811E-02    0.120E-02
DAV:  12    -0.131172254614E+03   -0.75871E-05   -0.20716E-05  2464   0.559E-02    0.929E-03
DAV:  13    -0.131172258094E+03   -0.34798E-05   -0.43699E-06  1846   0.225E-02    0.641E-03
DAV:  14    -0.131172261220E+03   -0.31263E-05   -0.17414E-06  1296   0.196E-02    0.200E-03
DAV:  15    -0.131172264287E+03   -0.30662E-05   -0.87222E-07  1270   0.929E-03    0.175E-03
DAV:  16    -0.131172267845E+03   -0.35581E-05   -0.69790E-07  1239   0.869E-03    0.117E-03
DAV:  17    -0.131172270258E+03   -0.24131E-05   -0.47234E-07  1214   0.608E-03    0.867E-04
DAV:  18    -0.131172271876E+03   -0.16180E-05   -0.22146E-07  1199   0.350E-03    0.978E-04
DAV:  19    -0.131172273197E+03   -0.13213E-05   -0.17186E-07  1190   0.286E-03    0.532E-04
DAV:  20    -0.131172275726E+03   -0.25292E-05   -0.29150E-07  1262   0.242E-03    0.420E-04
DAV:  21    -0.131172276222E+03   -0.49570E-06   -0.64816E-08  1208   0.211E-03
  26 F= -.13117228E+03 E0= -.13110003E+03  d E =-.324304E+00
       N       E                     dE             d eps       ncg     rms          rms(c)
DAV:   1    -0.131197945367E+03   -0.25670E-01   -0.11895E+02  2028   0.243E+01    0.180E+00
DAV:   2    -0.132876565238E+03   -0.16786E+01   -0.76176E+00  3062   0.896E+00    0.122E+01
DAV:   3    -0.131383652396E+03    0.14929E+01   -0.11537E+00  2990   0.455E+00    0.137E+00
DAV:   4    -0.131444388132E+03   -0.60736E-01   -0.14259E-01  2232   0.738E+00    0.204E+00
DAV:   5    -0.131431039123E+03    0.13349E-01   -0.48010E-02  3087   0.195E+00    0.541E-01
DAV:   6    -0.131462069454E+03   -0.31030E-01   -0.38613E-02  2398   0.243E+00    0.333E+00
DAV:   7    -0.131422595858E+03    0.39474E-01   -0.11218E-01  2958   0.159E+00    0.385E-01
DAV:   8    -0.131431999294E+03   -0.94034E-02   -0.58399E-03  3078   0.917E-01    0.142E-01
DAV:   9    -0.131432744525E+03   -0.74523E-03   -0.25062E-03  2728   0.440E-01    0.147E-01
DAV:  10    -0.131432734195E+03    0.10330E-04   -0.28159E-04  2536   0.175E-01    0.147E-01
DAV:  11    -0.131432699604E+03    0.34591E-04   -0.24318E-04  2296   0.189E-01    0.702E-02
DAV:  12    -0.131432745363E+03   -0.45759E-04   -0.11375E-04  2688   0.124E-01    0.106E-01
DAV:  13    -0.131432747459E+03   -0.20968E-05   -0.89589E-05  2848   0.864E-02    0.307E-02
DAV:  14    -0.131432753642E+03   -0.61821E-05   -0.96690E-06  1968   0.354E-02    0.103E-02
DAV:  15    -0.131432760327E+03   -0.66855E-05   -0.22946E-06  1392   0.207E-02    0.248E-03
DAV:  16    -0.131432770839E+03   -0.10512E-04   -0.11575E-06  1320   0.880E-03    0.422E-03
DAV:  17    -0.131432775829E+03   -0.49894E-05   -0.94187E-07  1320   0.849E-03    0.308E-03
DAV:  18    -0.131432782020E+03   -0.61917E-05   -0.66199E-07  1295   0.600E-03    0.476E-03
DAV:  19    -0.131432787655E+03   -0.56349E-05   -0.89615E-07  1327   0.409E-03    0.880E-03
DAV:  20    -0.131432790092E+03   -0.24364E-05   -0.54769E-07  1296   0.411E-03    0.911E-04
DAV:  21    -0.131432791344E+03   -0.12526E-05   -0.16307E-07  1216   0.287E-03    0.342E-03
DAV:  22    -0.131432792785E+03   -0.14405E-05   -0.24157E-07  1239   0.189E-03    0.282E-03
DAV:  23    -0.131432793430E+03   -0.64541E-06   -0.66868E-08  1152   0.157E-03
  27 F= -.13143279E+03 E0= -.13136087E+03  d E =-.584821E+00
       N       E                     dE             d eps       ncg     rms          rms(c)
DAV:   1    -0.131415013498E+03    0.17779E-01   -0.24188E+01  2037   0.107E+01    0.802E-01
DAV:   2    -0.131901038000E+03   -0.48602E+00   -0.17868E+00  3062   0.388E+00    0.114E+01
DAV:   3    -0.131397656669E+03    0.50338E+00   -0.90414E-01  3086   0.198E+00    0.893E-01
DAV:   4    -0.131458245969E+03   -0.60589E-01   -0.36712E-02  2128   0.369E+00    0.483E-01
DAV:   5    -0.131460342297E+03   -0.20963E-02   -0.69585E-03  2984   0.111E+00    0.333E-01
DAV:   6    -0.131460819651E+03   -0.47735E-03   -0.29512E-03  2344   0.124E+00    0.348E-01
DAV:   7    -0.131459914863E+03    0.90479E-03   -0.24098E-03  3040   0.978E-01    0.649E-02
DAV:   8    -0.131460147319E+03   -0.23246E-03   -0.16425E-03  2879   0.354E-01    0.374E-02
DAV:   9    -0.131460174173E+03   -0.26854E-04   -0.27545E-04  2384   0.161E-01    0.236E-02
DAV:  10    -0.131460177059E+03   -0.28858E-05   -0.43494E-05  2488   0.646E-02    0.161E-02
DAV:  11    -0.131460181970E+03   -0.49106E-05   -0.29906E-05  2232   0.735E-02    0.103E-02
DAV:  12    -0.131460185414E+03   -0.34446E-05   -0.11700E-05  2576   0.407E-02    0.723E-03
DAV:  13    -0.131460187897E+03   -0.24826E-05   -0.26954E-06  1424   0.200E-02    0.566E-03
DAV:  14    -0.131460189565E+03   -0.16677E-05   -0.91175E-07  1280   0.142E-02    0.205E-03
DAV:  15    -0.131460191398E+03   -0.18333E-05   -0.72049E-07  1240   0.737E-03    0.111E-03
DAV:  16    -0.131460193516E+03   -0.21178E-05   -0.48939E-07  1231   0.624E-03    0.850E-04
DAV:  17    -0.131460195120E+03   -0.16042E-05   -0.40059E-07  1239   0.526E-03    0.715E-04
DAV:  18    -0.131460196296E+03   -0.11760E-05   -0.15842E-07  1176   0.302E-03    0.681E-04
DAV:  19    -0.131460196993E+03   -0.69709E-06   -0.12694E-07  1152   0.267E-03
  28 F= -.13146020E+03 E0= -.13138848E+03  d E =-.612225E+00
       N       E                     dE             d eps       ncg     rms          rms(c)
DAV:   1    -0.131489040825E+03   -0.28845E-01   -0.90560E-01  2050   0.116E+00    0.163E+00
DAV:   2    -0.133140267621E+03   -0.16512E+01   -0.97082E+00  3808   0.568E+00    0.111E+01
DAV:   3    -0.131464068632E+03    0.16762E+01   -0.62905E-01  3744   0.635E+00    0.365E+00
DAV:   4    -0.131465603970E+03   -0.15353E-02   -0.57549E-02  3280   0.171E+00    0.156E+00
DAV:   5    -0.131480649172E+03   -0.15045E-01   -0.23585E-02  3624   0.113E+00    0.131E+00
DAV:   6    -0.131482418857E+03   -0.17697E-02   -0.44510E-03  2856   0.634E-01    0.719E-01
DAV:   7    -0.131481155596E+03    0.12633E-02   -0.35987E-03  2480   0.131E-01    0.388E-01
DAV:   8    -0.131481944456E+03   -0.78886E-03   -0.43727E-04  2728   0.258E-01    0.395E-01
DAV:   9    -0.131481416300E+03    0.52816E-03   -0.17693E-04  3040   0.112E-01    0.194E-01
DAV:  10    -0.131481428944E+03   -0.12644E-04   -0.16079E-04  2688   0.693E-02    0.379E-02
DAV:  11    -0.131481468744E+03   -0.39800E-04   -0.36955E-05  2680   0.503E-02    0.340E-02
DAV:  12    -0.131481472330E+03   -0.35862E-05   -0.45985E-06  1584   0.288E-02    0.212E-02
DAV:  13    -0.131481481293E+03   -0.89625E-05   -0.17204E-06  1304   0.126E-02    0.856E-03
DAV:  14    -0.131481490960E+03   -0.96672E-05   -0.94024E-07  1336   0.106E-02    0.816E-03
DAV:  15    -0.131481498734E+03   -0.77738E-05   -0.77151E-07  1288   0.803E-03    0.128E-03
DAV:  16    -0.131481508733E+03   -0.99991E-05   -0.75476E-07  1279   0.719E-03    0.149E-03
DAV:  17    -0.131481512000E+03   -0.32667E-05   -0.33050E-07  1304   0.397E-03    0.701E-04
DAV:  18    -0.131481513662E+03   -0.16623E-05   -0.19583E-07  1136   0.368E-03    0.452E-04
DAV:  19    -0.131481516489E+03   -0.28274E-05   -0.23611E-07  1255   0.233E-03    0.253E-03
DAV:  20    -0.131481517375E+03   -0.88610E-06   -0.91162E-08  1208   0.221E-03
  29 F= -.13148152E+03 E0= -.13140949E+03  d E =-.213204E-01
       N       E                     dE             d eps       ncg     rms          rms(c)
DAV:   1    -0.131496346557E+03   -0.14830E-01   -0.85648E-01  2034   0.114E+00    0.166E+00
DAV:   2    -0.133199109440E+03   -0.17028E+01   -0.10038E+01  3808   0.574E+00    0.112E+01
DAV:   3    -0.131468994480E+03    0.17301E+01   -0.58627E-01  3711   0.648E+00    0.379E+00
DAV:   4    -0.131471374596E+03   -0.23801E-02   -0.68496E-02  3264   0.175E+00    0.164E+00
DAV:   5    -0.131487361726E+03   -0.15987E-01   -0.26927E-02  3592   0.116E+00    0.139E+00
DAV:   6    -0.131489607599E+03   -0.22459E-02   -0.52422E-03  2832   0.635E-01    0.793E-01
DAV:   7    -0.131487910558E+03    0.16970E-02   -0.37767E-03  2584   0.134E-01    0.347E-01
DAV:   8    -0.131488966699E+03   -0.10561E-02   -0.45897E-04  2736   0.265E-01    0.404E-01
DAV:   9    -0.131488433907E+03    0.53279E-03   -0.17952E-04  2968   0.112E-01    0.212E-01
DAV:  10    -0.131488415670E+03    0.18236E-04   -0.15559E-04  2592   0.720E-02    0.201E-02
DAV:  11    -0.131488464815E+03   -0.49145E-04   -0.37567E-05  2696   0.520E-02    0.284E-02
DAV:  12    -0.131488472109E+03   -0.72942E-05   -0.52781E-06  1664   0.292E-02    0.236E-02
DAV:  13    -0.131488479217E+03   -0.71078E-05   -0.16785E-06  1304   0.124E-02    0.112E-02
DAV:  14    -0.131488488885E+03   -0.96679E-05   -0.98654E-07  1352   0.108E-02    0.997E-03
DAV:  15    -0.131488497448E+03   -0.85634E-05   -0.95440E-07  1270   0.846E-03    0.108E-03
DAV:  16    -0.131488506585E+03   -0.91364E-05   -0.64572E-07  1318   0.686E-03    0.197E-03
DAV:  17    -0.131488511274E+03   -0.46892E-05   -0.37049E-07  1296   0.431E-03    0.747E-04
DAV:  18    -0.131488512752E+03   -0.14780E-05   -0.20160E-07  1208   0.353E-03    0.575E-04
DAV:  19    -0.131488515788E+03   -0.30356E-05   -0.23178E-07  1222   0.249E-03    0.305E-03
DAV:  20    -0.131488516612E+03   -0.82440E-06   -0.95390E-08  1208   0.214E-03
  30 F= -.13148852E+03 E0= -.13141619E+03  d E =-.283196E-01
       N       E                     dE             d eps       ncg     rms          rms(c)
DAV:   1    -0.131492088154E+03   -0.35724E-02   -0.15409E-01  2006   0.851E-01    0.401E-02
DAV:   2    -0.131492482493E+03   -0.39434E-03   -0.33825E-03  2912   0.318E-01    0.177E-01
DAV:   3    -0.131492467164E+03    0.15329E-04   -0.58072E-04  2248   0.105E-01    0.147E-01
DAV:   4    -0.131492374879E+03    0.92285E-04   -0.11893E-04  2320   0.202E-01    0.285E-02
DAV:   5    -0.131492392245E+03   -0.17365E-04   -0.24700E-05  2864   0.840E-02    0.195E-02
DAV:   6    -0.131492393546E+03   -0.13013E-05   -0.21094E-05  3080   0.950E-02    0.142E-02
DAV:   7    -0.131492391692E+03    0.18547E-05   -0.11191E-05  2400   0.101E-01    0.937E-03
DAV:   8    -0.131492390761E+03    0.93045E-06   -0.38643E-06  1728   0.315E-02
  31 F= -.13149239E+03 E0= -.13142005E+03  d E =-.387415E-02
       N       E                     dE             d eps       ncg     rms          rms(c)
DAV:   1    -0.131499075875E+03   -0.66842E-02   -0.13864E+00  2011   0.256E+00    0.120E-01
DAV:   2    -0.131502505983E+03   -0.34301E-02   -0.30548E-02  2895   0.929E-01    0.475E-01
DAV:   3    -0.131502573320E+03   -0.67337E-04   -0.51303E-03  2294   0.321E-01    0.481E-01
DAV:   4    -0.131501684601E+03    0.88872E-03   -0.11251E-03  2318   0.573E-01    0.903E-02
DAV:   5    -0.131501855901E+03   -0.17130E-03   -0.25004E-04  2839   0.257E-01    0.583E-02
DAV:   6    -0.131501853883E+03    0.20182E-05   -0.18118E-04  3127   0.262E-01    0.382E-02
DAV:   7    -0.131501841141E+03    0.12742E-04   -0.10177E-04  2464   0.310E-01    0.378E-02
DAV:   8    -0.131501831214E+03    0.99277E-05   -0.55187E-05  3272   0.109E-01    0.120E-02
DAV:   9    -0.131501833659E+03   -0.24449E-05   -0.13337E-05  2736   0.354E-02    0.534E-03
DAV:  10    -0.131501835443E+03   -0.17842E-05   -0.48527E-06  1904   0.149E-02    0.573E-03
DAV:  11    -0.131501835643E+03   -0.20006E-06   -0.15047E-06  1104   0.160E-02
  32 F= -.13150184E+03 E0= -.13142953E+03  d E =-.133190E-01
       N       E                     dE             d eps       ncg     rms          rms(c)
DAV:   1    -0.131499905900E+03    0.19295E-02   -0.55482E+00  2010   0.512E+00    0.241E-01
DAV:   2    -0.131513420756E+03   -0.13515E-01   -0.12451E-01  2871   0.179E+00    0.862E-01
DAV:   3    -0.131514457538E+03   -0.10368E-02   -0.20088E-02  2327   0.651E-01    0.105E+00
DAV:   4    -0.131510497134E+03    0.39604E-02   -0.49262E-03  2350   0.106E+00    0.194E-01
DAV:   5    -0.131511195768E+03   -0.69863E-03   -0.10906E-03  2742   0.524E-01    0.119E-01
DAV:   6    -0.131511140035E+03    0.55733E-04   -0.70776E-04  3191   0.477E-01    0.759E-02
DAV:   7    -0.131511121477E+03    0.18558E-04   -0.43702E-04  2392   0.645E-01    0.100E-01
DAV:   8    -0.131511056298E+03    0.65178E-04   -0.24775E-04  3112   0.270E-01    0.272E-02
DAV:   9    -0.131511072237E+03   -0.15938E-04   -0.82262E-05  3128   0.731E-02    0.123E-02
DAV:  10    -0.131511077760E+03   -0.55234E-05   -0.18223E-05  2136   0.330E-02    0.141E-02
DAV:  11    -0.131511078855E+03   -0.10948E-05   -0.11862E-05  2168   0.426E-02    0.795E-03
DAV:  12    -0.131511078504E+03    0.35105E-06   -0.23330E-06  1312   0.197E-02
  33 F= -.13151108E+03 E0= -.13143877E+03  d E =-.225619E-01
       N       E                     dE             d eps       ncg     rms          rms(c)
DAV:   1    -0.131514567384E+03   -0.34885E-02   -0.80002E-01  1995   0.193E+00    0.468E-01
DAV:   2    -0.131778808387E+03   -0.26424E+00   -0.66539E-01  3375   0.113E+00    0.999E+00
DAV:   3    -0.131454959949E+03    0.32385E+00   -0.50969E-01  3240   0.160E+00    0.491E-01
DAV:   4    -0.131510682646E+03   -0.55723E-01   -0.73004E-03  2670   0.107E+00    0.461E-01
DAV:   5    -0.131514007147E+03   -0.33245E-02   -0.12828E-03  2656   0.664E-01    0.315E-01
DAV:   6    -0.131514527446E+03   -0.52030E-03   -0.88993E-04  2496   0.387E-01    0.755E-02
DAV:   7    -0.131514837028E+03   -0.30958E-03   -0.33936E-04  2344   0.340E-01    0.430E-02
DAV:   8    -0.131514862545E+03   -0.25517E-04   -0.98413E-05  2920   0.141E-01    0.263E-02
DAV:   9    -0.131514863281E+03   -0.73580E-06   -0.36597E-05  2280   0.719E-02    0.185E-02
DAV:  10    -0.131514866631E+03   -0.33504E-05   -0.10782E-05  2128   0.257E-02    0.597E-03
DAV:  11    -0.131514868935E+03   -0.23033E-05   -0.28636E-06  1464   0.178E-02    0.210E-03
DAV:  12    -0.131514869998E+03   -0.10630E-05   -0.49869E-07  1200   0.109E-02    0.222E-03
DAV:  13    -0.131514871587E+03   -0.15891E-05   -0.32917E-07  1264   0.610E-03    0.179E-03
DAV:  14    -0.131514872612E+03   -0.10254E-05   -0.14186E-07  1184   0.263E-03    0.712E-04
DAV:  15    -0.131514873650E+03   -0.10377E-05   -0.14236E-07  1144   0.343E-03    0.527E-04
DAV:  16    -0.131514874680E+03   -0.10297E-05   -0.94231E-08  1224   0.231E-03    0.517E-04
DAV:  17    -0.131514875744E+03   -0.10643E-05   -0.11385E-07  1224   0.230E-03    0.273E-04
DAV:  18    -0.131514876614E+03   -0.86968E-06   -0.82530E-08  1216   0.130E-03
  34 F= -.13151488E+03 E0= -.13144277E+03  d E =-.379811E-02
       N       E                     dE             d eps       ncg     rms          rms(c)
DAV:   1    -0.131514877364E+03   -0.16203E-05   -0.35130E-04  2056   0.404E-02    0.103E-02
DAV:   2    -0.131514981925E+03   -0.10456E-03   -0.10992E-04  1976   0.263E-02    0.183E-01
DAV:   3    -0.131514850572E+03    0.13135E-03   -0.10273E-04  1968   0.390E-02    0.956E-03
DAV:   4    -0.131514872051E+03   -0.21479E-04   -0.85258E-06  1358   0.271E-02    0.103E-02
DAV:   5    -0.131514875570E+03   -0.35186E-05   -0.12289E-06  1440   0.177E-02    0.592E-03
DAV:   6    -0.131514876885E+03   -0.13154E-05   -0.85994E-07  1112   0.838E-03    0.132E-03
DAV:   7    -0.131514877630E+03   -0.74535E-06   -0.57490E-07  1128   0.818E-03
  35 F= -.13151488E+03 E0= -.13144278E+03  d E =-.379913E-02
       N       E                     dE             d eps       ncg     rms          rms(c)
DAV:   1    -0.131516635876E+03   -0.17590E-02   -0.43454E-01  2036   0.143E+00    0.597E-02
DAV:   2    -0.131518650032E+03   -0.20142E-02   -0.91288E-03  2936   0.374E-01    0.605E-01
DAV:   3    -0.131517112837E+03    0.15372E-02   -0.14582E-03  2456   0.205E-01    0.565E-02
DAV:   4    -0.131517405712E+03   -0.29288E-03   -0.13788E-04  2445   0.821E-02    0.450E-02
DAV:   5    -0.131517394243E+03    0.11470E-04   -0.46595E-05  2408   0.127E-01    0.285E-02
DAV:   6    -0.131517385061E+03    0.91819E-05   -0.61882E-05  3520   0.856E-02    0.268E-02
DAV:   7    -0.131517379414E+03    0.56465E-05   -0.10649E-05  2520   0.356E-02    0.813E-03
DAV:   8    -0.131517381879E+03   -0.24649E-05   -0.21528E-06  1272   0.144E-02    0.312E-03
DAV:   9    -0.131517382505E+03   -0.62614E-06   -0.12869E-06  1200   0.117E-02
  36 F= -.13151738E+03 E0= -.13144530E+03  d E =-.250488E-02
       N       E                     dE             d eps       ncg     rms          rms(c)
DAV:   1    -0.131516265904E+03    0.11160E-02   -0.39101E+00  2035   0.430E+00    0.183E-01
DAV:   2    -0.131533605833E+03   -0.17340E-01   -0.82529E-02  2928   0.117E+00    0.164E+00
DAV:   3    -0.131521137651E+03    0.12468E-01   -0.11224E-02  2320   0.641E-01    0.185E-01
DAV:   4    -0.131523297180E+03   -0.21595E-02   -0.10810E-03  2365   0.295E-01    0.141E-01
[...]
DAV:   8    -0.131646483782E+03   -0.82585E-06   -0.37212E-06  1656   0.409E-02
 278 F= -.13164648E+03 E0= -.13157535E+03  d E =-.513029E-03
       N       E                     dE             d eps       ncg     rms          rms(c)
DAV:   1    -0.131646506949E+03   -0.23992E-04   -0.12723E-03  2031   0.651E-02    0.175E-02
DAV:   2    -0.131646834526E+03   -0.32758E-03   -0.21161E-04  2104   0.605E-02    0.330E-01
DAV:   3    -0.131646376660E+03    0.45787E-03   -0.20288E-04  1775   0.603E-02    0.147E-02
DAV:   4    -0.131646493390E+03   -0.11673E-03   -0.25429E-05  2215   0.135E-02    0.102E-02
DAV:   5    -0.131646504927E+03   -0.11537E-04   -0.14001E-06  1397   0.658E-03    0.667E-03
DAV:   6    -0.131646507083E+03   -0.21560E-05   -0.38497E-07  1237   0.451E-03    0.176E-03
DAV:   7    -0.131646507912E+03   -0.82899E-06   -0.22264E-07  1149   0.100E-02
 279 F= -.13164651E+03 E0= -.13157537E+03  d E =-.241298E-04
       N       E                     dE             d eps       ncg     rms          rms(c)
DAV:   1    -0.131646560023E+03   -0.52940E-04   -0.11457E-02  1997   0.190E-01    0.396E-02
DAV:   2    -0.131648078143E+03   -0.15181E-02   -0.11370E-03  3664   0.121E-01    0.718E-01
DAV:   3    -0.131646114926E+03    0.19632E-02   -0.10156E-03  3071   0.131E-01    0.347E-02
DAV:   4    -0.131646538139E+03   -0.42321E-03   -0.94730E-05  2557   0.347E-02    0.290E-02
DAV:   5    -0.131646561617E+03   -0.23478E-04   -0.10511E-05  2160   0.438E-02    0.994E-03
DAV:   6    -0.131646570964E+03   -0.93468E-05   -0.29856E-06  1456   0.451E-02    0.479E-03
DAV:   7    -0.131646572820E+03   -0.18566E-05   -0.66241E-07  1248   0.286E-02    0.682E-03
DAV:   8    -0.131646573328E+03   -0.50740E-06   -0.56678E-07  1133   0.142E-02
 280 F= -.13164657E+03 E0= -.13157544E+03  d E =-.895456E-04
       N       E                     dE             d eps       ncg     rms          rms(c)
DAV:   1    -0.131646622207E+03   -0.49387E-04   -0.45779E-02  1994   0.380E-01    0.778E-02
DAV:   2    -0.131652575851E+03   -0.59536E-02   -0.49808E-03  3639   0.206E-01    0.146E+00
DAV:   3    -0.131645017604E+03    0.75582E-02   -0.70263E-03  3015   0.257E-01    0.689E-02
DAV:   4    -0.131646544135E+03   -0.15265E-02   -0.25563E-04  2581   0.104E-01    0.580E-02
DAV:   5    -0.131646642977E+03   -0.98843E-04   -0.45878E-05  2224   0.120E-01    0.247E-02
DAV:   6    -0.131646666255E+03   -0.23277E-04   -0.14339E-05  2328   0.943E-02    0.123E-02
DAV:   7    -0.131646671790E+03   -0.55353E-05   -0.45674E-06  1656   0.483E-02    0.109E-02
DAV:   8    -0.131646674079E+03   -0.22887E-05   -0.39416E-06  1703   0.246E-02    0.607E-03
DAV:   9    -0.131646674379E+03   -0.30047E-06   -0.16407E-06  1157   0.100E-02
 281 F= -.13164667E+03 E0= -.13157556E+03  d E =-.190597E-03
       N       E                     dE             d eps       ncg     rms          rms(c)
DAV:   1    -0.131646554922E+03    0.11916E-03   -0.18318E-01  1992   0.759E-01    0.154E-01
DAV:   2    -0.131670910944E+03   -0.24356E-01   -0.33186E-02  3616   0.422E-01    0.307E+00
DAV:   3    -0.131639718320E+03    0.31193E-01   -0.53432E-02  3039   0.502E-01    0.143E-01
DAV:   4    -0.131646322066E+03   -0.66037E-02   -0.86123E-04  2566   0.188E-01    0.115E-01
DAV:   5    -0.131646689362E+03   -0.36730E-03   -0.16558E-04  2296   0.171E-01    0.707E-02
DAV:   6    -0.131646722789E+03   -0.33427E-04   -0.54674E-05  2424   0.105E-01    0.286E-02
DAV:   7    -0.131646749919E+03   -0.27130E-04   -0.19116E-05  2712   0.795E-02    0.203E-02
DAV:   8    -0.131646758258E+03   -0.83393E-05   -0.76679E-06  2152   0.595E-02    0.120E-02
DAV:   9    -0.131646759012E+03   -0.75425E-06   -0.32259E-06  1605   0.243E-02
 282 F= -.13164676E+03 E0= -.13157571E+03  d E =-.275230E-03
       N       E                     dE             d eps       ncg     rms          rms(c)
DAV:   1    -0.131646787139E+03   -0.28881E-04   -0.15368E-03  2070   0.597E-02    0.101E-02
DAV:   2    -0.131646817050E+03   -0.29910E-04   -0.43085E-05  2344   0.224E-02    0.956E-02
DAV:   3    -0.131646767963E+03    0.49087E-04   -0.23495E-05  1440   0.234E-02    0.137E-02
DAV:   4    -0.131646788572E+03   -0.20610E-04   -0.38039E-06  1317   0.110E-02    0.320E-03
DAV:   5    -0.131646789624E+03   -0.10519E-05   -0.11377E-06  1277   0.154E-02    0.277E-03
DAV:   6    -0.131646790199E+03   -0.57527E-06   -0.35406E-07  1157   0.129E-02
 283 F= -.13164679E+03 E0= -.13157572E+03  d E =-.311870E-04
       N       E                     dE             d eps       ncg     rms          rms(c)
DAV:   1    -0.131646862939E+03   -0.73315E-04   -0.13830E-02  1996   0.174E-01    0.247E-02
DAV:   2    -0.131646889367E+03   -0.26428E-04   -0.23774E-04  2856   0.397E-02    0.622E-02
DAV:   3    -0.131646897620E+03   -0.82533E-05   -0.55064E-05  1592   0.294E-02    0.102E-01
DAV:   4    -0.131646870070E+03    0.27551E-04   -0.29447E-05  1904   0.439E-02    0.918E-03
DAV:   5    -0.131646881547E+03   -0.11477E-04   -0.46874E-06  1448   0.461E-02    0.804E-03
DAV:   6    -0.131646882427E+03   -0.87963E-06   -0.19058E-06  1408   0.506E-02
 284 F= -.13164688E+03 E0= -.13157581E+03  d E =-.123414E-03
       N       E                     dE             d eps       ncg     rms          rms(c)
DAV:   1    -0.131646980688E+03   -0.99141E-04   -0.55299E-02  1992   0.349E-01    0.493E-02
DAV:   2    -0.131647065495E+03   -0.84807E-04   -0.94440E-04  2847   0.851E-02    0.883E-02
DAV:   3    -0.131647231585E+03   -0.16609E-03   -0.23790E-04  2383   0.465E-02    0.260E-01
DAV:   4    -0.131646969535E+03    0.26205E-03   -0.16356E-04  2207   0.116E-01    0.200E-02
DAV:   5    -0.131647051609E+03   -0.82074E-04   -0.27301E-05  2126   0.125E-01    0.205E-02
DAV:   6    -0.131647055653E+03   -0.40443E-05   -0.77723E-06  2224   0.113E-01    0.810E-03
DAV:   7    -0.131647054941E+03    0.71223E-06   -0.30066E-06  1448   0.545E-02
 285 F= -.13164705E+03 E0= -.13157601E+03  d E =-.295929E-03
       N       E                     dE             d eps       ncg     rms          rms(c)
DAV:   1    -0.131647079207E+03   -0.23554E-04   -0.22118E-01  1992   0.696E-01    0.982E-02
DAV:   2    -0.131647405982E+03   -0.32677E-03   -0.37338E-03  2856   0.167E-01    0.153E-01
DAV:   3    -0.131648291475E+03   -0.88549E-03   -0.97903E-04  2855   0.134E-01    0.557E-01
DAV:   4    -0.131647025598E+03    0.12659E-02   -0.66949E-04  2431   0.164E-01    0.394E-02
DAV:   5    -0.131647348619E+03   -0.32302E-03   -0.98092E-05  2238   0.164E-01    0.292E-02
DAV:   6    -0.131647371444E+03   -0.22825E-04   -0.30767E-05  2256   0.150E-01    0.103E-02
DAV:   7    -0.131647371870E+03   -0.42550E-06   -0.14809E-05  2656   0.891E-02    0.705E-03
DAV:   8    -0.131647371981E+03   -0.11135E-06   -0.21648E-06  1352   0.399E-02
 286 F= -.13164737E+03 E0= -.13157636E+03  d E =-.612969E-03
       N       E                     dE             d eps       ncg     rms          rms(c)
DAV:   1    -0.131646696480E+03    0.67539E-03   -0.88433E-01  1992   0.139E+00    0.197E-01
DAV:   2    -0.131648076655E+03   -0.13802E-02   -0.14946E-02  2888   0.327E-01    0.323E-01
DAV:   3    -0.131651371664E+03   -0.32950E-02   -0.44022E-03  3191   0.219E-01    0.106E+00
DAV:   4    -0.131646756977E+03    0.46147E-02   -0.23390E-03  2320   0.369E-01    0.789E-02
DAV:   5    -0.131647794955E+03   -0.10380E-02   -0.32872E-04  2224   0.402E-01    0.759E-02
DAV:   6    -0.131647842625E+03   -0.47670E-04   -0.12613E-04  2320   0.419E-01    0.301E-02
DAV:   7    -0.131647852651E+03   -0.10026E-04   -0.62679E-05  2888   0.226E-01    0.115E-02
DAV:   8    -0.131647852576E+03    0.75321E-07   -0.28021E-05  3478   0.770E-02    0.782E-03
DAV:   9    -0.131647852666E+03   -0.90047E-07   -0.78812E-06  2062   0.173E-02
 287 F= -.13164785E+03 E0= -.13157691E+03  d E =-.109365E-02
       N       E                     dE             d eps       ncg     rms          rms(c)
DAV:   1    -0.131643663120E+03    0.41895E-02   -0.35342E+00  1993   0.278E+00    0.395E-01
DAV:   2    -0.131649436316E+03   -0.57732E-02   -0.60582E-02  2912   0.692E-01    0.660E-01
DAV:   3    -0.131662013414E+03   -0.12577E-01   -0.19338E-02  3064   0.439E-01    0.203E+00
DAV:   4    -0.131645133500E+03    0.16880E-01   -0.81772E-03  2248   0.795E-01    0.172E-01
DAV:   5    -0.131648162006E+03   -0.30285E-02   -0.12232E-03  2208   0.885E-01    0.178E-01
DAV:   6    -0.131648260127E+03   -0.98121E-04   -0.54164E-04  2320   0.857E-01    0.605E-02
DAV:   7    -0.131648324196E+03   -0.64069E-04   -0.26702E-04  3024   0.451E-01    0.257E-02
DAV:   8    -0.131648320607E+03    0.35892E-05   -0.12368E-04  3399   0.171E-01    0.175E-02
DAV:   9    -0.131648322212E+03   -0.16055E-05   -0.35218E-05  2367   0.358E-02    0.970E-03
DAV:  10    -0.131648322843E+03   -0.63132E-06   -0.67964E-06  2031   0.376E-02
 288 F= -.13164832E+03 E0= -.13157753E+03  d E =-.156383E-02
       N       E                     dE             d eps       ncg     rms          rms(c)
DAV:   1    -0.131648415642E+03   -0.93430E-04   -0.71267E-02  1995   0.372E-01    0.584E-02
DAV:   2    -0.131648497605E+03   -0.81962E-04   -0.12450E-03  2952   0.135E-01    0.492E-02
DAV:   3    -0.131648819675E+03   -0.32207E-03   -0.33141E-04  2376   0.107E-01    0.327E-01
DAV:   4    -0.131648383174E+03    0.43650E-03   -0.26108E-04  3336   0.102E-01    0.416E-02
DAV:   5    -0.131648500643E+03   -0.11747E-03   -0.57808E-05  2120   0.188E-01    0.228E-02
DAV:   6    -0.131648507048E+03   -0.64046E-05   -0.13954E-05  2440   0.122E-01    0.711E-03
DAV:   7    -0.131648507599E+03   -0.55128E-06   -0.44224E-06  1672   0.678E-02
 289 F= -.13164851E+03 E0= -.13157775E+03  d E =-.184756E-03
       N       E                     dE             d eps       ncg     rms          rms(c)
DAV:   1    -0.131648536552E+03   -0.29505E-04   -0.22787E-02  1995   0.214E-01    0.335E-02
DAV:   2    -0.131648583911E+03   -0.47359E-04   -0.42928E-04  2872   0.589E-02    0.880E-02
DAV:   3    -0.131648601206E+03   -0.17295E-04   -0.11057E-04  2200   0.288E-02    0.138E-01
DAV:   4    -0.131648551292E+03    0.49914E-04   -0.65385E-05  2367   0.965E-02    0.154E-02
DAV:   5    -0.131648566371E+03   -0.15079E-04   -0.14300E-05  2119   0.973E-02    0.124E-02
DAV:   6    -0.131648568362E+03   -0.19912E-05   -0.39283E-06  1744   0.739E-02    0.470E-03
DAV:   7    -0.131648568080E+03    0.28254E-06   -0.13067E-06  1288   0.386E-02
 290 F= -.13164857E+03 E0= -.13157781E+03  d E =-.245236E-03
       N       E                     dE             d eps       ncg     rms          rms(c)
DAV:   1    -0.131648469477E+03    0.98885E-04   -0.91140E-02  1993   0.420E-01    0.667E-02
DAV:   2    -0.131648623949E+03   -0.15447E-03   -0.16345E-03  2880   0.128E-01    0.138E-01
DAV:   3    -0.131648869335E+03   -0.24539E-03   -0.46629E-04  2896   0.549E-02    0.322E-01
DAV:   4    -0.131648476518E+03    0.39282E-03   -0.30064E-04  2408   0.200E-01    0.325E-02
DAV:   5    -0.131648579334E+03   -0.10282E-03   -0.59733E-05  2159   0.199E-01    0.255E-02
DAV:   6    -0.131648586664E+03   -0.73306E-05   -0.20325E-05  3136   0.144E-01    0.886E-03
DAV:   7    -0.131648586792E+03   -0.12812E-06   -0.54573E-06  1856   0.761E-02
 291 F= -.13164859E+03 E0= -.13157786E+03  d E =-.263949E-03
       N       E                     dE             d eps       ncg     rms          rms(c)
DAV:   1    -0.131648575870E+03    0.10795E-04   -0.17447E-02  1994   0.189E-01    0.288E-02
DAV:   2    -0.131648593325E+03   -0.17456E-04   -0.30583E-04  3224   0.828E-02    0.174E-02
DAV:   3    -0.131648606896E+03   -0.13570E-04   -0.36418E-05  2552   0.132E-01    0.690E-02
DAV:   4    -0.131648593030E+03    0.13865E-04   -0.20981E-05  1968   0.271E-02    0.284E-02
DAV:   5    -0.131648593287E+03   -0.25617E-06   -0.52031E-06  1431   0.878E-02
 292 F= -.13164859E+03 E0= -.13157783E+03  d E =-.270443E-03
       N       E                     dE             d eps       ncg     rms          rms(c)
DAV:   1    -0.131648656689E+03   -0.63658E-04   -0.90796E-02  2019   0.390E-01    0.648E-02
DAV:   2    -0.131648841614E+03   -0.18493E-03   -0.14756E-03  2848   0.789E-02    0.177E-01
DAV:   3    -0.131648899428E+03   -0.57814E-04   -0.39679E-04  2472   0.891E-02    0.246E-01
DAV:   4    -0.131648698265E+03    0.20116E-03   -0.16991E-04  2376   0.795E-02    0.228E-02
DAV:   5    -0.131648760653E+03   -0.62388E-04   -0.18959E-05  1438   0.472E-02    0.152E-02
DAV:   6    -0.131648767140E+03   -0.64870E-05   -0.65995E-06  2200   0.671E-02    0.102E-02
DAV:   7    -0.131648763565E+03    0.35755E-05   -0.34649E-06  1464   0.430E-02    0.291E-03
DAV:   8    -0.131648764947E+03   -0.13821E-05   -0.10336E-06  1146   0.134E-02    0.220E-03
DAV:   9    -0.131648765110E+03   -0.16333E-06   -0.89036E-07  1170   0.108E-02
 293 F= -.13164877E+03 E0= -.13157803E+03  d E =-.171824E-03
       N       E                     dE             d eps       ncg     rms          rms(c)
DAV:   1    -0.131648224010E+03    0.54094E-03   -0.81617E-01  2010   0.115E+00    0.196E-01
DAV:   2    -0.131649511840E+03   -0.12878E-02   -0.12933E-02  2872   0.280E-01    0.369E-01
DAV:   3    -0.131652010429E+03   -0.24986E-02   -0.44034E-03  2344   0.314E-01    0.962E-01
DAV:   4    -0.131648297010E+03    0.37134E-02   -0.19840E-03  2944   0.182E-01    0.767E-02
DAV:   5    -0.131649126086E+03   -0.82908E-03   -0.21670E-04  2432   0.246E-01    0.411E-02
DAV:   6    -0.131649201399E+03   -0.75313E-04   -0.10902E-04  2224   0.289E-01    0.347E-02
DAV:   7    -0.131649191782E+03    0.96171E-05   -0.30849E-05  2400   0.179E-01    0.164E-02
DAV:   8    -0.131649192936E+03   -0.11540E-05   -0.19879E-05  2944   0.673E-02    0.603E-03
DAV:   9    -0.131649193125E+03   -0.18853E-06   -0.37725E-06  1671   0.136E-02
 294 F= -.13164919E+03 E0= -.13157852E+03  d E =-.599838E-03
       N       E                     dE             d eps       ncg     rms          rms(c)
DAV:   1    -0.131645713187E+03    0.34797E-02   -0.32612E+00  2010   0.231E+00    0.392E-01
DAV:   2    -0.131650918378E+03   -0.52052E-02   -0.52562E-02  2904   0.532E-01    0.714E-01
DAV:   3    -0.131661521044E+03   -0.10603E-01   -0.19731E-02  2424   0.604E-01    0.190E+00
DAV:   4    -0.131646768755E+03    0.14752E-01   -0.71711E-03  2952   0.426E-01    0.176E-01
DAV:   5    -0.131649359238E+03   -0.25905E-02   -0.74709E-04  2392   0.458E-01    0.102E-01
DAV:   6    -0.131649622378E+03   -0.26314E-03   -0.43987E-04  2239   0.483E-01    0.461E-02
DAV:   7    -0.131649646972E+03   -0.24594E-04   -0.11338E-04  2768   0.227E-01    0.293E-02
DAV:   8    -0.131649645980E+03    0.99180E-06   -0.54846E-05  2888   0.925E-02    0.140E-02
DAV:   9    -0.131649646632E+03   -0.65216E-06   -0.79912E-06  2207   0.281E-02
 295 F= -.13164965E+03 E0= -.13157911E+03  d E =-.105335E-02
       N       E                     dE             d eps       ncg     rms          rms(c)
DAV:   1    -0.131649363859E+03    0.28212E-03   -0.55936E-01  1992   0.792E-01    0.181E-01
DAV:   2    -0.131650898602E+03   -0.15347E-02   -0.99521E-03  3448   0.456E-01    0.568E-01
DAV:   3    -0.131650515666E+03    0.38294E-03   -0.37457E-03  3088   0.300E-01    0.555E-01
DAV:   4    -0.131649688375E+03    0.82729E-03   -0.98940E-04  2776   0.331E-01    0.913E-02
DAV:   5    -0.131649939741E+03   -0.25137E-03   -0.29896E-04  2200   0.523E-01    0.524E-02
DAV:   6    -0.131649970983E+03   -0.31241E-04   -0.12488E-04  2408   0.398E-01    0.351E-02
DAV:   7    -0.131649970906E+03    0.77242E-07   -0.58143E-05  3424   0.166E-01    0.180E-02
DAV:   8    -0.131649969388E+03    0.15175E-05   -0.17593E-05  2832   0.692E-02    0.762E-03
DAV:   9    -0.131649969572E+03   -0.18429E-06   -0.74415E-06  2248   0.173E-02
 296 F= -.13164997E+03 E0= -.13157954E+03  d E =-.322940E-03
       N       E                     dE             d eps       ncg     rms          rms(c)
DAV:   1    -0.131649966496E+03    0.28918E-05   -0.20109E-02  1992   0.152E-01    0.341E-02
DAV:   2    -0.131650051699E+03   -0.85203E-04   -0.36940E-04  3352   0.975E-02    0.143E-01
DAV:   3    -0.131649982842E+03    0.68858E-04   -0.12632E-04  2816   0.568E-02    0.789E-02
DAV:   4    -0.131649976126E+03    0.67159E-05   -0.32112E-05  1566   0.720E-02    0.146E-02
DAV:   5    -0.131649986839E+03   -0.10714E-04   -0.10411E-05  2216   0.104E-01    0.109E-02
DAV:   6    -0.131649988182E+03   -0.13423E-05   -0.44394E-06  1704   0.772E-02    0.553E-03
DAV:   7    -0.131649988220E+03   -0.38184E-07   -0.11655E-06  1264   0.261E-02
 297 F= -.13164999E+03 E0= -.13157954E+03  d E =-.341588E-03
       N       E                     dE             d eps       ncg     rms          rms(c)
DAV:   1    -0.131650112403E+03   -0.12422E-03   -0.38205E-01  1993   0.494E-01    0.147E-01
DAV:   2    -0.131651523987E+03   -0.14116E-02   -0.60839E-03  3096   0.152E-01    0.609E-01
DAV:   3    -0.131650441715E+03    0.10823E-02   -0.23834E-03  3151   0.190E-01    0.365E-01
DAV:   4    -0.131650334765E+03    0.10695E-03   -0.56128E-04  2776   0.887E-02    0.490E-02
DAV:   5    -0.131650474640E+03   -0.13988E-03   -0.67803E-05  2648   0.603E-02    0.244E-02
DAV:   6    -0.131650488113E+03   -0.13473E-04   -0.22560E-05  2232   0.114E-01    0.150E-02
DAV:   7    -0.131650481820E+03    0.62935E-05   -0.57528E-06  2080   0.779E-02    0.408E-03
DAV:   8    -0.131650484053E+03   -0.22333E-05   -0.11172E-06  1295   0.198E-02    0.285E-03
DAV:   9    -0.131650483962E+03    0.90746E-07   -0.13911E-06  1202   0.154E-02
 298 F= -.13165048E+03 E0= -.13158010E+03  d E =-.495742E-03
       N       E                     dE             d eps       ncg     rms          rms(c)
DAV:   1    -0.131648425407E+03    0.20586E-02   -0.34350E+00  1993   0.148E+00    0.442E-01
DAV:   2    -0.131661020437E+03   -0.12595E-01   -0.56810E-02  3112   0.439E-01    0.186E+00
DAV:   3    -0.131652490589E+03    0.85298E-02   -0.43826E-02  3095   0.557E-01    0.106E+00
DAV:   4    -0.131650897904E+03    0.15927E-02   -0.38653E-03  2968   0.282E-01    0.195E-01
DAV:   5    -0.131651746356E+03   -0.84845E-03   -0.59489E-04  2480   0.322E-01    0.120E-01
DAV:   6    -0.131651871752E+03   -0.12540E-03   -0.33307E-04  2264   0.544E-01    0.481E-02
DAV:   7    -0.131651857633E+03    0.14119E-04   -0.94530E-05  2248   0.349E-01    0.135E-02
DAV:   8    -0.131651856450E+03    0.11832E-05   -0.29310E-05  3112   0.844E-02    0.108E-02
DAV:   9    -0.131651856709E+03   -0.25914E-06   -0.14822E-05  2255   0.322E-02    0.733E-03
DAV:  10    -0.131651856682E+03    0.27125E-07   -0.29787E-06  1525   0.225E-02
 299 F= -.13165186E+03 E0= -.13158169E+03  d E =-.186846E-02
       N       E                     dE             d eps       ncg     rms          rms(c)
DAV:   1    -0.131638868502E+03    0.12988E-01   -0.13706E+01  1993   0.297E+00    0.884E-01
DAV:   2    -0.131689592333E+03   -0.50724E-01   -0.25854E-01  3096   0.897E-01    0.377E+00
DAV:   3    -0.131658314009E+03    0.31278E-01   -0.25184E-01  3096   0.110E+00    0.207E+00
DAV:   4    -0.131651496293E+03    0.68177E-02   -0.13974E-02  2952   0.547E-01    0.548E-01
DAV:   5    -0.131653566536E+03   -0.20702E-02   -0.25640E-03  2304   0.834E-01    0.425E-01
DAV:   6    -0.131653483227E+03    0.83308E-04   -0.16586E-03  2320   0.107E+00    0.118E-01
DAV:   7    -0.131653700690E+03   -0.21746E-03   -0.37860E-04  2440   0.569E-01    0.370E-02
DAV:   8    -0.131653743297E+03   -0.42607E-04   -0.12492E-04  3192   0.204E-01    0.278E-02
DAV:   9    -0.131653747487E+03   -0.41901E-05   -0.64668E-05  2575   0.632E-02    0.209E-02
DAV:  10    -0.131653746873E+03    0.61409E-06   -0.17923E-05  2375   0.626E-02    0.938E-03
DAV:  11    -0.131653747912E+03   -0.10390E-05   -0.49871E-06  2029   0.377E-02    0.225E-03
DAV:  12    -0.131653749434E+03   -0.15220E-05   -0.78724E-07  1149   0.908E-03    0.212E-03
DAV:  13    -0.131653750171E+03   -0.73697E-06   -0.63496E-07  1178   0.960E-03
 300 F= -.13165375E+03 E0= -.13158400E+03  d E =-.376195E-02
