PROCAR lm decomposed
# of k-points:    4         # of bands:  249         # of ions:   40

 k-point     1 :    0.00000000 0.00000000 0.00000000     weight = 0.11111111

band     1 # energy  -27.19515562 # occ.  2.00000000
 
ion      s     py     pz     px    dxy    dyz    dz2    dxz  x2-y2    tot
    1  0.000  0.000  0.000  0.000  0.000  0.000  0.000  0.000  0.000  0.000
    2  0.000  0.000  0.000  0.000  0.000  0.000  0.000  0.000  0.000  0.000
    3  0.000  0.000  0.000  0.000  0.000  0.000  0.000  0.000  0.000  0.000
    4  0.000  0.000  0.000  0.000  0.000  0.000  0.000  0.000  0.000  0.000
    5  0.000  0.000  0.000  0.000  0.000  0.000  0.000  0.000  0.000  0.000
    6  0.000  0.000  0.000  0.000  0.000  0.000  0.000  0.000  0.000  0.000
    7  0.000  0.000  0.000  0.000  0.000  0.000  0.000  0.000  0.000  0.000
    8  0.000  0.000  0.000  0.000  0.000  0.000  0.000  0.000  0.000  0.000
    9  0.000  0.000  0.000  0.000  0.000  0.000  0.000  0.000  0.000  0.000
   10  0.000  0.000  0.000  0.000  0.000  0.000  0.000  0.000  0.000  0.000
   11  0.000  0.000  0.000  0.000  0.000  0.000  0.000  0.000  0.000  0.000
   12  0.000  0.000  0.000  0.000  0.000  0.000  0.000  0.000  0.000  0.000
   13  0.000  0.000  0.000  0.000  0.000  0.000  0.000  0.000  0.000  0.000
   14  0.000  0.000  0.000  0.000  0.000  0.000  0.000  0.000  0.000  0.000
   15  0.000  0.000  0.000  0.000  0.000  0.000  0.000  0.000  0.000  0.000
   16  0.000  0.000  0.000  0.000  0.000  0.000  0.000  0.000  0.000  0.000
   17  0.000  0.000  0.000  0.000  0.000  0.000  0.000  0.000  0.000  0.000
   18  0.000  0.000  0.000  0.000  0.000  0.000  0.000  0.000  0.000  0.000
   19  0.000  0.000  0.000  0.000  0.000  0.000  0.000  0.000  0.000  0.000
   20  0.000  0.000  0.000  0.000  0.000  0.000  0.000  0.000  0.000  0.000
   21  0.000  0.000  0.000  0.000  0.000  0.000  0.000  0.000  0.000  0.000
   22  0.000  0.000  0.000  0.000  0.000  0.000  0.000  0.000  0.000  0.000
   23  0.000  0.000  0.000  0.000  0.000  0.000  0.000  0.000  0.000  0.000
   24  0.000  0.000  0.000  0.000  0.000  0.000  0.000  0.000  0.000  0.000
   25  0.000  0.000  0.000  0.000  0.000  0.000  0.000  0.000  0.000  0.000
   26  0.000  0.000  0.000  0.000  0.000  0.000  0.000  0.000  0.000  0.000
   27  0.000  0.000  0.000  0.000  0.000  0.000  0.000  0.000  0.000  0.000
   28  0.000  0.000  0.000  0.000  0.000  0.000  0.000  0.000  0.000  0.000
   29  0.000  0.000  0.000  0.000  0.000  0.000  0.000  0.000  0.000  0.000
   30  0.000  0.000  0.000  0.000  0.000  0.000  0.000  0.000  0.000  0.000
   31  0.000  0.000  0.000  0.000  0.000  0.000  0.000  0.000  0.000  0.000
   32  0.000  0.000  0.000  0.000  0.000  0.000  0.000  0.000  0.000  0.000
   33  0.000  0.000  0.000  0.000  0.000  0.000  0.000  0.000  0.000  0.000
   34  0.000  0.000  0.000  0.000  0.000  0.000  0.000  0.000  0.000  0.000
   35  0.000  0.000  0.000  0.000  0.000  0.000  0.000  0.000  0.000  0.000
   36  0.000  0.000  0.000  0.000  0.000  0.000  0.000  0.000  0.000  0.000
   37  0.399  0.052  0.039  0.000  0.000  0.000  0.000  0.000  0.000  0.490
   38  0.000  0.000  0.000  0.000  0.000  0.000  0.000  0.000  0.000  0.000
   39  0.000  0.000  0.000  0.000  0.000  0.000  0.000  0.000  0.000  0.000
   40  0.396  0.052  0.039  0.000  0.000  0.000  0.000  0.000  0.000  0.487
tot    0.794  0.105  0.078  0.000  0.000  0.000  0.000  0.000  0.000  0.977
 
band     2 # energy  -16.09615699 # occ.  2.00000000
 
ion      s     py     pz     px    dxy    dyz    dz2    dxz  x2-y2    tot
    1  0.000  0.000  0.000  0.000  0.000  0.000  0.000  0.000  0.000  0.000
    2  0.000  0.000  0.000  0.000  0.000  0.000  0.000  0.000  0.000  0.000
    3  0.000  0.000  0.000  0.000  0.000  0.000  0.000  0.000  0.000  0.000
    4  0.000  0.000  0.000  0.000  0.000  0.000  0.000  0.000  0.000  0.000
    5  0.000  0.000  0.000  0.000  0.000  0.000  0.000  0.000  0.000  0.000
    6  0.000  0.000  0.000  0.000  0.000  0.000  0.000  0.000  0.000  0.000
    7  0.000  0.000  0.000  0.000  0.000  0.000  0.000  0.000  0.000  0.000
    8  0.000  0.000  0.000  0.000  0.000  0.000  0.000  0.000  0.000  0.000
    9  0.000  0.000  0.000  0.000  0.000  0.000  0.000  0.000  0.000  0.000
   10  0.000  0.000  0.000  0.000  0.000  0.000  0.000  0.000  0.000  0.000
   11  0.000  0.000  0.000  0.000  0.000  0.000  0.000  0.000  0.000  0.000
   12  0.000  0.000  0.000  0.000  0.000  0.000  0.000  0.000  0.000  0.000
   13  0.000  0.000  0.000  0.000  0.000  0.000  0.000  0.000  0.000  0.000
   14  0.000  0.000  0.000  0.000  0.000  0.000  0.000  0.000  0.000  0.000
   15  0.000  0.000  0.000  0.000  0.000  0.000  0.000  0.000  0.000  0.000
   16  0.000  0.000  0.000  0.000  0.000  0.000  0.000  0.000  0.000  0.000
   17  0.000  0.000  0.000  0.000  0.000  0.000  0.000  0.000  0.000  0.000
   18  0.000  0.000  0.000  0.000  0.000  0.000  0.000  0.000  0.000  0.000
   19  0.000  0.000  0.000  0.000  0.000  0.000  0.000  0.000  0.000  0.000
   20  0.000  0.000  0.000  0.000  0.000  0.000  0.000  0.000  0.000  0.000
   21  0.000  0.000  0.000  0.000  0.000  0.000  0.000  0.000  0.000  0.000
   22  0.000  0.000  0.000  0.000  0.000  0.000  0.000  0.000  0.000  0.000
   23  0.000  0.000  0.000  0.000  0.000  0.000  0.000  0.000  0.000  0.000
   24  0.000  0.000  0.000  0.000  0.000  0.000  0.000  0.000  0.000  0.000
   25  0.000  0.000  0.000  0.000  0.000  0.000  0.000  0.000  0.000  0.001
   26  0.000  0.000  0.000  0.000  0.000  0.000  0.000  0.000  0.000  0.000
   27  0.000  0.000  0.000  0.000  0.000  0.000  0.000  0.000  0.000  0.000
   28  0.004  0.001  0.001  0.001  0.001  0.001  0.000  0.001  0.000  0.010
   29  0.004  0.001  0.001  0.001  0.001  0.001  0.000  0.001  0.000  0.010
   30  0.000  0.000  0.000  0.000  0.000  0.000  0.000  0.000  0.000  0.000
   31  0.000  0.000  0.000  0.000  0.000  0.000  0.000  0.000  0.000  0.000
   32  0.000  0.000  0.000  0.000  0.000  0.000  0.000  0.000  0.000  0.000
   33  0.000  0.000  0.000  0.000  0.000  0.000  0.000  0.000  0.000  0.000
   34  0.010  0.002  0.003  0.004  0.002  0.001  0.000  0.003  0.000  0.024
   35  0.010  0.002  0.003  0.004  0.002  0.001  0.000  0.003  0.000  0.024
   36  0.000  0.000  0.000  0.000  0.000  0.000  0.000  0.000  0.000  0.000
   37  0.000  0.000  0.000  0.000  0.000  0.000  0.000  0.000  0.000  0.000
   38  0.286  0.062  0.001  0.000  0.000  0.000  0.000  0.000  0.000  0.349
   39  0.259  0.058  0.016  0.000  0.000  0.000  0.000  0.000  0.000  0.332
   40  0.000  0.000  0.000  0.000  0.000  0.000  0.000  0.000  0.000  0.000
tot    0.574  0.126  0.024  0.010  0.005  0.004  0.000  0.008  0.000  0.751
 
band     3 # energy  -15.69561418 # occ.  2.00000000
 
ion      s     py     pz     px    dxy    dyz    dz2    dxz  x2-y2    tot
    1  0.000  0.000  0.000  0.000  0.000  0.000  0.000  0.000  0.000  0.000
    2  0.000  0.000  0.000  0.000  0.000  0.000  0.000  0.000  0.000  0.000
    3  0.000  0.000  0.000  0.000  0.000  0.000  0.000  0.000  0.000  0.000
    4  0.000  0.000  0.000  0.000  0.000  0.000  0.000  0.000  0.000  0.000
    5  0.000  0.000  0.000  0.000  0.000  0.000  0.000  0.000  0.000  0.000
    6  0.000  0.000  0.000  0.000  0.000  0.000  0.000  0.000  0.000  0.000
    7  0.000  0.000  0.000  0.000  0.000  0.000  0.000  0.000  0.000  0.000
    8  0.000  0.000  0.000  0.000  0.000  0.000  0.000  0.000  0.000  0.000
    9  0.000  0.000  0.000  0.000  0.000  0.000  0.000  0.000  0.000  0.000
   10  0.000  0.000  0.000  0.000  0.000  0.000  0.000  0.000  0.000  0.000
   11  0.000  0.000  0.000  0.000  0.000  0.000  0.000  0.000  0.000  0.000
   12  0.000  0.000  0.000  0.000  0.000  0.000  0.000  0.000  0.000  0.000
   13  0.000  0.000  0.000  0.000  0.000  0.000  0.000  0.000  0.000  0.000
   14  0.000  0.000  0.000  0.000  0.000  0.000  0.000  0.000  0.000  0.000
   15  0.000  0.000  0.000  0.000  0.000  0.000  0.000  0.000  0.000  0.000
   16  0.000  0.000  0.000  0.000  0.000  0.000  0.000  0.000  0.000  0.000
   17  0.000  0.000  0.000  0.000  0.000  0.000  0.000  0.000  0.000  0.000
   18  0.000  0.000  0.000  0.000  0.000  0.000  0.000  0.000  0.000  0.000
   19  0.000  0.000  0.000  0.000  0.000  0.000  0.000  0.000  0.000  0.000
   20  0.000  0.000  0.000  0.000  0.000  0.000  0.000  0.000  0.000  0.000
   21  0.000  0.000  0.000  0.000  0.000  0.000  0.000  0.000  0.000  0.000
   22  0.000  0.000  0.000  0.000  0.000  0.000  0.000  0.000  0.000  0.000
   23  0.000  0.000  0.000  0.000  0.000  0.000  0.000  0.000  0.000  0.000
   24  0.000  0.000  0.000  0.000  0.000  0.000  0.000  0.000  0.000  0.000
   25  0.000  0.000  0.000  0.000  0.000  0.000  0.000  0.000  0.000  0.000
   26  0.000  0.000  0.000  0.000  0.000  0.000  0.000  0.000  0.000  0.000
   27  0.000  0.000  0.000  0.000  0.000  0.000  0.000  0.000  0.000  0.000
   28  0.000  0.000  0.000  0.000  0.000  0.000  0.000  0.000  0.000  0.000
   29  0.000  0.000  0.000  0.000  0.000  0.000  0.000  0.000  0.000  0.000
   30  0.000  0.000  0.000  0.000  0.000  0.000  0.000  0.000  0.000  0.000
   31  0.000  0.000  0.000  0.000  0.000  0.000  0.000  0.000  0.000  0.000
   32  0.000  0.000  0.000  0.000  0.000  0.000  0.000  0.000  0.000  0.000
   33  0.000  0.000  0.000  0.000  0.000  0.000  0.000  0.000  0.000  0.000
   34  0.000  0.000  0.000  0.000  0.000  0.000  0.000  0.000  0.000  0.000
   35  0.000  0.000  0.000  0.000  0.000  0.000  0.000  0.000  0.000  0.000
   36  0.000  0.000  0.000  0.000  0.000  0.000  0.000  0.000  0.000  0.000
   37  0.374  0.023  0.018  0.000  0.000  0.000  0.000  0.000  0.000  0.415
   38  0.000  0.000  0.000  0.000  0.000  0.000  0.000  0.000  0.000  0.000
   39  0.000  0.000  0.000  0.000  0.000  0.000  0.000  0.000  0.000  0.000
   40  0.374  0.021  0.016  0.000  0.000  0.000  0.000  0.000  0.000  0.411
tot    0.748  0.044  0.034  0.000  0.000  0.000  0.000  0.000  0.000  0.826
 
band     4 # energy  -10.23109138 # occ.  2.00000000
 
ion      s     py     pz     px    dxy    dyz    dz2    dxz  x2-y2    tot
    1  0.007  0.000  0.001  0.000  0.000  0.000  0.000  0.000  0.000  0.008
    2  0.007  0.000  0.001  0.000  0.000  0.000  0.000  0.000  0.000  0.008
    3  0.007  0.000  0.001  0.000  0.000  0.000  0.000  0.000  0.000  0.008
    4  0.007  0.000  0.001  0.000  0.000  0.000  0.000  0.000  0.000  0.008
    5  0.007  0.000  0.001  0.000  0.000  0.000  0.000  0.000  0.000  0.008
    6  0.007  0.000  0.001  0.000  0.000  0.000  0.000  0.000  0.000  0.008
    7  0.007  0.000  0.001  0.000  0.000  0.000  0.000  0.000  0.000  0.008
    8  0.007  0.000  0.001  0.000  0.000  0.000  0.000  0.000  0.000  0.008
    9  0.007  0.000  0.001  0.000  0.000  0.000  0.000  0.000  0.000  0.008
   10  0.024  0.000  0.000  0.000  0.000  0.000  0.000  0.000  0.000  0.024
   11  0.024  0.000  0.000  0.000  0.000  0.000  0.000  0.000  0.000  0.024
   12  0.023  0.000  0.000  0.000  0.000  0.000  0.000  0.000  0.000  0.023
   13  0.024  0.000  0.000  0.000  0.000  0.000  0.000  0.000  0.000  0.024
   14  0.024  0.000  0.000  0.000  0.000  0.000  0.000  0.000  0.000  0.024
   15  0.023  0.000  0.000  0.000  0.000  0.000  0.000  0.000  0.000  0.023
   16  0.023  0.000  0.000  0.000  0.000  0.000  0.000  0.000  0.000  0.024
   17  0.023  0.000  0.000  0.000  0.000  0.000  0.000  0.000  0.000  0.024
   18  0.023  0.000  0.000  0.000  0.000  0.000  0.000  0.000  0.000  0.023
   19  0.023  0.000  0.000  0.000  0.000  0.000  0.000  0.000  0.000  0.023
   20  0.023  0.000  0.000  0.000  0.000  0.000  0.000  0.000  0.000  0.023
   21  0.023  0.000  0.000  0.000  0.000  0.000  0.000  0.000  0.000  0.023
   22  0.022  0.000  0.000  0.000  0.000  0.000  0.000  0.000  0.000  0.022
   23  0.022  0.000  0.000  0.000  0.000  0.000  0.000  0.000  0.000  0.022
   24  0.022  0.000  0.000  0.000  0.000  0.000  0.000  0.000  0.000  0.022
   25  0.022  0.000  0.000  0.000  0.000  0.000  0.000  0.000  0.000  0.022
   26  0.022  0.000  0.000  0.000  0.000  0.000  0.000  0.000  0.000  0.022
   27  0.022  0.000  0.000  0.000  0.000  0.000  0.000  0.000  0.000  0.022
   28  0.008  0.000  0.001  0.000  0.000  0.000  0.000  0.000  0.000  0.009
   29  0.008  0.000  0.001  0.000  0.000  0.000  0.000  0.000  0.000  0.009
   30  0.007  0.000  0.001  0.000  0.000  0.000  0.000  0.000  0.000  0.008
   31  0.007  0.000  0.001  0.000  0.000  0.000  0.000  0.000  0.000  0.008
   32  0.007  0.000  0.001  0.000  0.000  0.000  0.000  0.000  0.000  0.008
   33  0.007  0.000  0.001  0.000  0.000  0.000  0.000  0.000  0.000  0.008
   34  0.004  0.000  0.001  0.000  0.000  0.000  0.000  0.000  0.000  0.005
   35  0.004  0.000  0.001  0.000  0.000  0.000  0.000  0.000  0.000  0.005
   36  0.007  0.000  0.001  0.000  0.000  0.000  0.000  0.000  0.000  0.008
   37  0.000  0.000  0.000  0.000  0.000  0.000  0.000  0.000  0.000  0.000
   38  0.000  0.003  0.002  0.000  0.000  0.000  0.000  0.000  0.000  0.005
   39  0.003  0.001  0.000  0.000  0.000  0.000  0.000  0.000  0.000  0.004
   40  0.000  0.000  0.000  0.000  0.000  0.000  0.000  0.000  0.000  0.000
tot    0.540  0.004  0.020  0.000  0.000  0.000  0.001  0.000  0.000  0.566
 
band     5 # energy   -9.02450990 # occ.  2.00000000
 
ion      s     py     pz     px    dxy    dyz    dz2    dxz  x2-y2    tot
    1  0.004  0.000  0.000  0.000  0.000  0.000  0.000  0.000  0.000  0.005
    2  0.005  0.000  0.000  0.000  0.000  0.000  0.000  0.000  0.000  0.005
    3  0.005  0.000  0.000  0.000  0.000  0.000  0.000  0.000  0.000  0.005
    4  0.006  0.000  0.000  0.000  0.000  0.000  0.000  0.000  0.000  0.006
    5  0.006  0.000  0.000  0.000  0.000  0.000  0.000  0.000  0.000  0.006
    6  0.006  0.000  0.000  0.000  0.000  0.000  0.000  0.000  0.000  0.006
    7  0.005  0.000  0.000  0.000  0.000  0.000  0.000  0.000  0.000  0.005
    8  0.005  0.000  0.000  0.000  0.000  0.000  0.000  0.000  0.000  0.005
    9  0.005  0.000  0.000  0.000  0.000  0.000  0.000  0.000  0.000  0.005
   10  0.002  0.000  0.001  0.000  0.000  0.000  0.000  0.000  0.000  0.003
   11  0.002  0.000  0.001  0.000  0.000  0.000  0.000  0.000  0.000  0.003
   12  0.003  0.000  0.001  0.000  0.000  0.000  0.000  0.000  0.000  0.004
   13  0.005  0.000  0.000  0.000  0.000  0.000  0.000  0.000  0.000  0.006
   14  0.005  0.000  0.000  0.000  0.000  0.000  0.000  0.000  0.000  0.006
   15  0.006  0.000  0.000  0.000  0.000  0.000  0.000  0.000  0.000  0.006
   16  0.006  0.000  0.000  0.000  0.000  0.000  0.000  0.000  0.000  0.006
   17  0.006  0.000  0.000  0.000  0.000  0.000  0.000  0.000  0.000  0.006
   18  0.007  0.000  0.000  0.000  0.000  0.000  0.000  0.000  0.000  0.007
   19  0.005  0.000  0.002  0.000  0.000  0.000  0.000  0.000  0.000  0.008
   20  0.003  0.000  0.002  0.000  0.000  0.000  0.000  0.000  0.000  0.005
   21  0.003  0.000  0.002  0.000  0.000  0.000  0.000  0.000  0.000  0.005
   22  0.000  0.000  0.000  0.000  0.000  0.000  0.000  0.000  0.000  0.001
   23  0.000  0.000  0.000  0.000  0.000  0.000  0.000  0.000  0.000  0.001
   24  0.000  0.000  0.000  0.000  0.000  0.000  0.000  0.000  0.000  0.001
   25  0.005  0.001  0.003  0.000  0.000  0.001  0.000  0.000  0.000  0.010
   26  0.001  0.000  0.001  0.000  0.000  0.000  0.000  0.000  0.000  0.003
   27  0.001  0.000  0.001  0.000  0.000  0.000  0.000  0.000  0.000  0.003
   28  0.059  0.002  0.001  0.009  0.009  0.004  0.001  0.011  0.006  0.100
   29  0.059  0.002  0.001  0.009  0.009  0.004  0.001  0.011  0.006  0.100
   30  0.009  0.000  0.000  0.000  0.000  0.000  0.001  0.000  0.001  0.011
   31  0.003  0.001  0.000  0.000  0.000  0.000  0.000  0.000  0.000  0.005
   32  0.003  0.001  0.000  0.000  0.000  0.000  0.000  0.000  0.000  0.005
   33  0.002  0.000  0.000  0.000  0.000  0.000  0.000  0.000  0.000  0.003
   34  0.000  0.001  0.002  0.001  0.000  0.000  0.003  0.006  0.004  0.017
   35  0.000  0.001  0.002  0.001  0.000  0.000  0.003  0.006  0.004  0.017
   36  0.001  0.000  0.000  0.000  0.000  0.000  0.000  0.000  0.000  0.001
   37  0.000  0.000  0.000  0.000  0.000  0.000  0.000  0.000  0.000  0.001
   38  0.062  0.067  0.029  0.000  0.000  0.000  0.000  0.000  0.000  0.158
   39  0.086  0.000  0.000  0.000  0.000  0.000  0.000  0.000  0.000  0.087
   40  0.000  0.000  0.000  0.000  0.000  0.000  0.000  0.000  0.000  0.001
tot    0.391  0.077  0.054  0.019  0.019  0.010  0.014  0.033  0.022  0.638
 
band     6 # energy   -8.57196514 # occ.  2.00000000
 
ion      s     py     pz     px    dxy    dyz    dz2    dxz  x2-y2    tot
    1  0.002  0.000  0.000  0.000  0.000  0.000  0.000  0.000  0.000  0.002
    2  0.002  0.000  0.000  0.000  0.000  0.000  0.000  0.000  0.000  0.002
    3  0.002  0.000  0.000  0.000  0.000  0.000  0.000  0.000  0.000  0.002
    4  0.001  0.000  0.000  0.000  0.000  0.000  0.000  0.000  0.000  0.001
    5  0.001  0.000  0.000  0.000  0.000  0.000  0.000  0.000  0.000  0.001
    6  0.001  0.000  0.000  0.000  0.000  0.000  0.000  0.000  0.000  0.001
    7  0.002  0.000  0.000  0.000  0.000  0.000  0.000  0.000  0.000  0.002
    8  0.002  0.000  0.000  0.000  0.000  0.000  0.000  0.000  0.000  0.002
    9  0.002  0.000  0.000  0.000  0.000  0.000  0.000  0.000  0.000  0.002
   10  0.001  0.000  0.000  0.000  0.000  0.000  0.000  0.000  0.000  0.002
   11  0.001  0.000  0.000  0.000  0.000  0.000  0.000  0.000  0.000  0.002
   12  0.001  0.000  0.000  0.000  0.000  0.000  0.000  0.000  0.000  0.001
   13  0.000  0.000  0.000  0.000  0.000  0.000  0.000  0.000  0.000  0.001
   14  0.000  0.000  0.000  0.000  0.000  0.000  0.000  0.000  0.000  0.001
   15  0.000  0.000  0.000  0.000  0.000  0.000  0.000  0.000  0.000  0.001
   16  0.001  0.000  0.000  0.000  0.000  0.000  0.000  0.000  0.000  0.001
   17  0.001  0.000  0.000  0.000  0.000  0.000  0.000  0.000  0.000  0.001
   18  0.000  0.000  0.000  0.000  0.000  0.000  0.000  0.000  0.000  0.001
   19  0.000  0.000  0.000  0.000  0.000  0.000  0.000  0.000  0.000  0.001
   20  0.001  0.000  0.000  0.000  0.000  0.000  0.000  0.000  0.000  0.001
   21  0.001  0.000  0.000  0.000  0.000  0.000  0.000  0.000  0.000  0.001
   22  0.002  0.000  0.000  0.000  0.000  0.000  0.000  0.000  0.000  0.003
   23  0.003  0.000  0.000  0.000  0.000  0.000  0.000  0.000  0.000  0.004
   24  0.003  0.000  0.000  0.000  0.000  0.000  0.000  0.000  0.000  0.004
   25  0.000  0.000  0.000  0.000  0.000  0.000  0.000  0.000  0.000  0.001
   26  0.001  0.000  0.000  0.000  0.000  0.000  0.000  0.000  0.000  0.001
   27  0.001  0.000  0.000  0.000  0.000  0.000  0.000  0.000  0.000  0.001
   28  0.000  0.000  0.000  0.001  0.001  0.000  0.000  0.001  0.000  0.004
   29  0.000  0.000  0.000  0.001  0.001  0.000  0.000  0.001  0.000  0.004
   30  0.001  0.000  0.000  0.000  0.000  0.000  0.000  0.000  0.000  0.001
   31  0.003  0.000  0.000  0.000  0.000  0.000  0.000  0.000  0.000  0.003
   32  0.003  0.000  0.000  0.000  0.000  0.000  0.000  0.000  0.000  0.003
   33  0.003  0.000  0.000  0.000  0.000  0.000  0.000  0.000  0.000  0.003
   34  0.003  0.000  0.000  0.000  0.000  0.000  0.000  0.001  0.001  0.005
   35  0.003  0.000  0.000  0.000  0.000  0.000  0.000  0.001  0.001  0.005
   36  0.003  0.000  0.000  0.000  0.000  0.000  0.000  0.000  0.000  0.004
   37  0.033  0.172  0.147  0.000  0.000  0.000  0.000  0.000  0.000  0.351
   38  0.008  0.002  0.000  0.000  0.000  0.000  0.000  0.000  0.000  0.011
   39  0.005  0.002  0.000  0.000  0.000  0.000  0.000  0.000  0.000  0.006
   40  0.036  0.191  0.128  0.000  0.000  0.000  0.000  0.000  0.000  0.355
tot    0.135  0.368  0.281  0.002  0.002  0.001  0.003  0.003  0.003  0.798
 
band     7 # energy   -8.56490917 # occ.  2.00000000
 
ion      s     py     pz     px    dxy    dyz    dz2    dxz  x2-y2    tot
    1  0.012  0.000  0.001  0.000  0.000  0.000  0.000  0.000  0.000  0.013
    2  0.011  0.000  0.000  0.000  0.000  0.000  0.000  0.000  0.000  0.011
    3  0.011  0.000  0.000  0.000  0.000  0.000  0.000  0.000  0.000  0.011
    4  0.009  0.000  0.000  0.000  0.000  0.000  0.000  0.000  0.000  0.010
    5  0.008  0.000  0.000  0.000  0.000  0.000  0.000  0.000  0.000  0.009
    6  0.008  0.000  0.000  0.000  0.000  0.000  0.000  0.000  0.000  0.009
    7  0.012  0.000  0.001  0.000  0.000  0.000  0.000  0.000  0.000  0.013
    8  0.010  0.000  0.000  0.000  0.000  0.000  0.000  0.000  0.000  0.011
    9  0.010  0.000  0.000  0.000  0.000  0.000  0.000  0.000  0.000  0.011
   10  0.008  0.000  0.001  0.000  0.000  0.000  0.000  0.000  0.000  0.010
   11  0.008  0.000  0.001  0.000  0.000  0.000  0.000  0.000  0.000  0.010
   12  0.006  0.000  0.002  0.000  0.000  0.000  0.000  0.000  0.000  0.008
   13  0.003  0.000  0.002  0.000  0.000  0.000  0.001  0.000  0.000  0.006
   14  0.003  0.000  0.002  0.000  0.000  0.000  0.001  0.000  0.000  0.006
   15  0.002  0.000  0.002  0.000  0.000  0.000  0.001  0.000  0.000  0.005
   16  0.003  0.000  0.002  0.000  0.000  0.000  0.001  0.000  0.000  0.006
   17  0.003  0.000  0.002  0.000  0.000  0.000  0.001  0.000  0.000  0.006
   18  0.002  0.000  0.002  0.000  0.000  0.000  0.001  0.000  0.000  0.005
   19  0.002  0.000  0.001  0.000  0.000  0.000  0.001  0.000  0.000  0.004
   20  0.005  0.000  0.001  0.000  0.000  0.000  0.001  0.000  0.000  0.008
   21  0.005  0.000  0.001  0.000  0.000  0.000  0.001  0.000  0.000  0.008
   22  0.013  0.000  0.002  0.000  0.000  0.000  0.000  0.000  0.000  0.016
   23  0.018  0.000  0.002  0.000  0.000  0.000  0.000  0.000  0.000  0.021
   24  0.018  0.000  0.002  0.000  0.000  0.000  0.000  0.000  0.000  0.021
   25  0.001  0.000  0.000  0.000  0.000  0.000  0.002  0.000  0.000  0.004
   26  0.007  0.000  0.001  0.000  0.000  0.000  0.001  0.000  0.000  0.009
   27  0.007  0.000  0.001  0.000  0.000  0.000  0.001  0.000  0.000  0.009
   28  0.001  0.001  0.002  0.003  0.003  0.001  0.000  0.004  0.002  0.016
   29  0.001  0.001  0.002  0.003  0.003  0.001  0.000  0.004  0.002  0.016
   30  0.007  0.000  0.000  0.000  0.000  0.000  0.000  0.000  0.001  0.008
   31  0.013  0.000  0.001  0.000  0.000  0.000  0.000  0.000  0.000  0.015
   32  0.013  0.000  0.001  0.000  0.000  0.000  0.000  0.000  0.000  0.015
   33  0.016  0.000  0.001  0.000  0.000  0.000  0.000  0.000  0.000  0.018
   34  0.020  0.001  0.000  0.000  0.000  0.000  0.000  0.003  0.003  0.028
   35  0.020  0.001  0.000  0.000  0.000  0.000  0.000  0.003  0.003  0.028
   36  0.021  0.000  0.001  0.000  0.000  0.000  0.000  0.000  0.000  0.022
   37  0.006  0.036  0.021  0.000  0.000  0.000  0.000  0.000  0.000  0.063
   38  0.036  0.010  0.000  0.000  0.000  0.000  0.000  0.000  0.000  0.047
   39  0.017  0.007  0.002  0.000  0.000  0.000  0.000  0.000  0.000  0.026
   40  0.007  0.029  0.028  0.000  0.000  0.000  0.000  0.000  0.000  0.064
tot    0.386  0.090  0.092  0.007  0.007  0.004  0.016  0.014  0.011  0.627
 
band     8 # energy   -7.90626817 # occ.  2.00000000
 
ion      s     py     pz     px    dxy    dyz    dz2    dxz  x2-y2    tot
    1  0.000  0.000  0.000  0.002  0.000  0.000  0.000  0.003  0.000  0.005
    2  0.006  0.000  0.001  0.001  0.000  0.000  0.000  0.001  0.000  0.008
    3  0.006  0.000  0.001  0.001  0.000  0.000  0.000  0.001  0.000  0.008
    4  0.000  0.000  0.000  0.002  0.000  0.000  0.000  0.003  0.000  0.005
    5  0.006  0.000  0.001  0.001  0.000  0.000  0.000  0.001  0.000  0.008
    6  0.006  0.000  0.001  0.001  0.000  0.000  0.000  0.001  0.000  0.008
    7  0.000  0.000  0.000  0.002  0.000  0.000  0.000  0.003  0.000  0.005
    8  0.006  0.000  0.001  0.001  0.000  0.000  0.000  0.001  0.000  0.008
    9  0.006  0.000  0.001  0.001  0.000  0.000  0.000  0.001  0.000  0.008
   10  0.023  0.000  0.000  0.002  0.000  0.000  0.000  0.000  0.003  0.029
   11  0.023  0.000  0.000  0.002  0.000  0.000  0.000  0.000  0.003  0.029
   12  0.000  0.000  0.000  0.007  0.000  0.000  0.000  0.001  0.000  0.008
   13  0.023  0.000  0.000  0.002  0.000  0.000  0.000  0.000  0.003  0.028
   14  0.023  0.000  0.000  0.002  0.000  0.000  0.000  0.000  0.003  0.028
   15  0.000  0.000  0.000  0.007  0.000  0.000  0.000  0.001  0.000  0.008
   16  0.023  0.000  0.000  0.002  0.000  0.000  0.000  0.000  0.003  0.029
   17  0.023  0.000  0.000  0.002  0.000  0.000  0.000  0.000  0.003  0.029
   18  0.000  0.000  0.000  0.007  0.000  0.000  0.000  0.001  0.000  0.008
   19  0.000  0.000  0.000  0.008  0.000  0.000  0.000  0.000  0.000  0.008
   20  0.026  0.000  0.000  0.002  0.000  0.000  0.000  0.000  0.003  0.031
   21  0.026  0.000  0.000  0.002  0.000  0.000  0.000  0.000  0.003  0.031
   22  0.000  0.000  0.000  0.008  0.000  0.000  0.000  0.000  0.000  0.008
   23  0.026  0.000  0.000  0.002  0.000  0.000  0.000  0.000  0.003  0.031
   24  0.026  0.000  0.000  0.002  0.000  0.000  0.000  0.000  0.003  0.031
   25  0.000  0.000  0.000  0.007  0.000  0.000  0.000  0.000  0.000  0.008
   26  0.025  0.000  0.000  0.002  0.000  0.000  0.000  0.000  0.004  0.031
   27  0.025  0.000  0.000  0.002  0.000  0.000  0.000  0.000  0.004  0.031
   28  0.011  0.000  0.000  0.000  0.000  0.001  0.000  0.002  0.001  0.016
   29  0.011  0.000  0.000  0.000  0.000  0.001  0.000  0.002  0.001  0.016
   30  0.000  0.000  0.000  0.003  0.000  0.000  0.000  0.003  0.000  0.006
   31  0.008  0.000  0.001  0.001  0.000  0.000  0.000  0.001  0.001  0.012
   32  0.008  0.000  0.001  0.001  0.000  0.000  0.000  0.001  0.001  0.012
   33  0.000  0.000  0.000  0.003  0.000  0.000  0.000  0.003  0.000  0.006
   34  0.011  0.000  0.000  0.000  0.000  0.000  0.001  0.002  0.001  0.017
   35  0.011  0.000  0.000  0.000  0.000  0.000  0.001  0.002  0.001  0.017
   36  0.000  0.000  0.000  0.003  0.000  0.000  0.000  0.003  0.000  0.006
   37  0.000  0.000  0.000  0.004  0.000  0.000  0.000  0.000  0.000  0.004
   38  0.000  0.000  0.000  0.008  0.000  0.000  0.000  0.000  0.000  0.008
   39  0.000  0.000  0.000  0.005  0.000  0.000  0.000  0.000  0.000  0.005
   40  0.000  0.000  0.000  0.004  0.000  0.000  0.000  0.000  0.000  0.004
tot    0.387  0.000  0.010  0.107  0.001  0.002  0.004  0.037  0.050  0.599
 
band     9 # energy   -7.85233392 # occ.  2.00000000
 
ion      s     py     pz     px    dxy    dyz    dz2    dxz  x2-y2    tot
    1  0.006  0.000  0.001  0.000  0.000  0.000  0.000  0.000  0.000  0.008
    2  0.002  0.000  0.000  0.000  0.000  0.000  0.000  0.000  0.000  0.004
    3  0.002  0.000  0.000  0.000  0.000  0.000  0.000  0.000  0.000  0.004
    4  0.001  0.001  0.000  0.000  0.000  0.002  0.000  0.000  0.000  0.004
    5  0.000  0.001  0.000  0.000  0.000  0.002  0.000  0.000  0.000  0.003
    6  0.000  0.001  0.000  0.000  0.000  0.002  0.000  0.000  0.000  0.003
    7  0.001  0.000  0.000  0.000  0.000  0.000  0.000  0.000  0.000  0.002
    8  0.004  0.000  0.001  0.000  0.000  0.000  0.000  0.000  0.000  0.006
    9  0.004  0.000  0.001  0.000  0.000  0.000  0.000  0.000  0.000  0.006
   10  0.000  0.004  0.000  0.000  0.000  0.000  0.000  0.000  0.000  0.005
   11  0.000  0.004  0.000  0.000  0.000  0.000  0.000  0.000  0.000  0.005
   12  0.002  0.003  0.000  0.000  0.000  0.000  0.000  0.000  0.000  0.006
   13  0.018  0.001  0.000  0.000  0.000  0.000  0.000  0.000  0.001  0.020
   14  0.018  0.001  0.000  0.000  0.000  0.000  0.000  0.000  0.001  0.020
   15  0.004  0.001  0.000  0.000  0.000  0.000  0.000  0.000  0.004  0.008
   16  0.007  0.001  0.000  0.000  0.000  0.000  0.000  0.000  0.002  0.011
   17  0.007  0.001  0.000  0.000  0.000  0.000  0.000  0.000  0.002  0.011
   18  0.024  0.001  0.000  0.000  0.000  0.000  0.000  0.000  0.001  0.025
   19  0.023  0.001  0.000  0.000  0.000  0.000  0.000  0.000  0.001  0.025
   20  0.006  0.001  0.000  0.000  0.000  0.000  0.000  0.000  0.002  0.010
   21  0.006  0.001  0.000  0.000  0.000  0.000  0.000  0.000  0.002  0.010
   22  0.003  0.003  0.000  0.000  0.000  0.000  0.000  0.000  0.000  0.007
   23  0.001  0.003  0.000  0.000  0.000  0.000  0.000  0.000  0.000  0.005
   24  0.001  0.003  0.000  0.000  0.000  0.000  0.000  0.000  0.000  0.005
   25  0.004  0.001  0.000  0.000  0.000  0.000  0.000  0.000  0.003  0.008
   26  0.017  0.001  0.000  0.000  0.000  0.000  0.000  0.000  0.001  0.019
   27  0.017  0.001  0.000  0.000  0.000  0.000  0.000  0.000  0.001  0.019
   28  0.000  0.001  0.000  0.000  0.000  0.001  0.000  0.000  0.000  0.003
   29  0.000  0.001  0.000  0.000  0.000  0.001  0.000  0.000  0.000  0.003
   30  0.001  0.001  0.000  0.000  0.000  0.001  0.000  0.000  0.000  0.003
   31  0.005  0.000  0.001  0.000  0.000  0.000  0.000  0.000  0.000  0.007
   32  0.005  0.000  0.001  0.000  0.000  0.000  0.000  0.000  0.000  0.007
   33  0.001  0.000  0.000  0.000  0.000  0.000  0.000  0.000  0.001  0.002
   34  0.001  0.000  0.000  0.000  0.000  0.000  0.000  0.000  0.000  0.003
   35  0.001  0.000  0.000  0.000  0.000  0.000  0.000  0.000  0.000  0.003
   36  0.006  0.000  0.001  0.000  0.000  0.000  0.000  0.000  0.000  0.008
   37  0.000  0.083  0.099  0.000  0.000  0.000  0.000  0.000  0.000  0.182
   38  0.000  0.000  0.001  0.000  0.000  0.000  0.000  0.000  0.000  0.001
   39  0.000  0.000  0.000  0.000  0.000  0.000  0.000  0.000  0.000  0.001
   40  0.000  0.071  0.106  0.000  0.000  0.000  0.000  0.000  0.000  0.177
tot    0.200  0.195  0.213  0.006  0.000  0.016  0.002  0.002  0.026  0.660
 
band    10 # energy   -7.85046876 # occ.  2.00000000
 
ion      s     py     pz     px    dxy    dyz    dz2    dxz  x2-y2    tot
    1  0.000  0.000  0.000  0.000  0.000  0.000  0.000  0.000  0.000  0.000
    2  0.000  0.000  0.000  0.000  0.000  0.000  0.000  0.000  0.000  0.000
    3  0.000  0.000  0.000  0.000  0.000  0.000  0.000  0.000  0.000  0.000
    4  0.000  0.000  0.000  0.000  0.000  0.000  0.000  0.000  0.000  0.000
    5  0.000  0.000  0.000  0.000  0.000  0.000  0.000  0.000  0.000  0.000
    6  0.000  0.000  0.000  0.000  0.000  0.000  0.000  0.000  0.000  0.000