Cu(100) coverage-dependent binding (RPBE
            1
     7.668573    0.000000    0.000000
     0.000000    7.668573    0.000000
     0.000000    0.000000   29.422500
   Cu   O    C    O 
    36     1     2     1
Direct configuration=     1
   0.16666667  0.16666667  0.40785113
   0.50000000  0.16666667  0.40785113
   0.83333333  0.16666667  0.40785113
   0.16666667  0.50000000  0.40785113
   0.50000000  0.50000000  0.40785113
   0.83333333  0.50000000  0.40785113
   0.16666667  0.83333333  0.40785113
   0.50000000  0.83333333  0.40785113
   0.83333333  0.83333333  0.40785113
   0.00000000  0.00000000  0.46928371
   0.33333333  0.00000000  0.46928371
   0.66666667  0.00000000  0.46928371
   0.00000000  0.33333333  0.46928371
   0.33333333  0.33333333  0.46928371
   0.66666667  0.33333333  0.46928371
   0.00000000  0.66666667  0.46928371
   0.33333333  0.66666667  0.46928371
   0.66666667  0.66666667  0.46928371
   0.16666667  0.16666667  0.53071629
   0.50000000  0.16666667  0.53071629
   0.83333333  0.16666667  0.53071629
   0.16666667  0.50000000  0.53071629
   0.50000000  0.50000000  0.53071629
   0.83333333  0.50000000  0.53071629
   0.16666667  0.83333333  0.53071629
   0.50000000  0.83333333  0.53071629
   0.83333333  0.83333333  0.53071629
   0.00000000  0.00000000  0.59214887
   0.33333333  0.00000000  0.59214887
   0.66666667  0.00000000  0.59214887
   0.00000000  0.33333333  0.59214887
   0.33333333  0.33333333  0.59214887
   0.66666667  0.33333333  0.59214887
   0.00000000  0.66666667  0.59214887
   0.33333333  0.66666667  0.59214887
   0.66666667  0.66666667  0.59214887
   0.16666667  0.23553157  0.68731413
   0.16666667  0.28443245  0.64992778
   0.16666667  0.38223422  0.64992778
   0.16666667  0.43113510  0.68731413
Direct configuration=     2
   0.16666667  0.16666667  0.40785113
   0.50000000  0.16666667  0.40785113
   0.83333333  0.16666667  0.40785113
   0.16666667  0.50000000  0.40785113
   0.50000000  0.50000000  0.40785113
   0.83333333  0.50000000  0.40785113
   0.16666667  0.83333333  0.40785113
   0.50000000  0.83333333  0.40785113
   0.83333333  0.83333333  0.40785113
   0.00000000  0.00000000  0.46928371
   0.33333333  0.00000000  0.46928371
   0.66666667  0.00000000  0.46928371
   0.00000000  0.33333333  0.46928371
   0.33333333  0.33333333  0.46928371
   0.66666667  0.33333333  0.46928371
   0.00000000  0.66666667  0.46928371
   0.33333333  0.66666667  0.46928371
   0.66666667  0.66666667  0.46928371
   0.16666667  0.16644877  0.53066563
   0.49977253  0.16716116  0.53109132
   0.83356081  0.16716116  0.53109132
   0.16666667  0.50023782  0.53066836
   0.49977580  0.49952914  0.53109716
   0.83355754  0.49952914  0.53109716
   0.16666667  0.83330775  0.53101767
   0.49973538  0.83330386  0.53116898
   0.83359795  0.83330386  0.53116898
   0.00027297  0.99982805  0.59244268
   0.33306037  0.99982805  0.59244268
   0.66666667  0.99993167  0.59235150
   0.99691383  0.33328674  0.59198929
   0.33641950  0.33328674  0.59198929
   0.66666667  0.33330064  0.59218205
   0.00025948  0.66687960  0.59244342
   0.33307385  0.66687960  0.59244342
   0.66666667  0.66676177  0.59235255
   0.16666667  0.15090595  0.71664094
   0.16666667  0.91168604  0.62119660
   0.16666667  0.75500096  0.62119581
   0.16666667  0.51580878  0.71663968
Direct configuration=     3
   0.16666667  0.16666667  0.40785113
   0.50000000  0.16666667  0.40785113
   0.83333333  0.16666667  0.40785113
   0.16666667  0.50000000  0.40785113
   0.50000000  0.50000000  0.40785113
   0.83333333  0.50000000  0.40785113
   0.16666667  0.83333333  0.40785113
   0.50000000  0.83333333  0.40785113
   0.83333333  0.83333333  0.40785113
   0.00000000  0.00000000  0.46928371
   0.33333333  0.00000000  0.46928371
   0.66666667  0.00000000  0.46928371
   0.00000000  0.33333333  0.46928371
   0.33333333  0.33333333  0.46928371
   0.66666667  0.33333333  0.46928371
   0.00000000  0.66666667  0.46928371
   0.33333333  0.66666667  0.46928371
   0.66666667  0.66666667  0.46928371
   0.16666667  0.16645433  0.53066692
   0.49977833  0.16714854  0.53108175
   0.83355500  0.16714854  0.53108175
   0.16666667  0.50023175  0.53066959
   0.49978152  0.49954116  0.53108744
   0.83355182  0.49954116  0.53108744
   0.16666667  0.83330841  0.53100998
   0.49974213  0.83330461  0.53115743
   0.83359120  0.83330461  0.53115743
   0.00026600  0.99983244  0.59243518
   0.33306733  0.99983244  0.59243518
   0.66666667  0.99993341  0.59234633
   0.99699259  0.33328793  0.59199336
   0.33634075  0.33328793  0.59199336
   0.66666667  0.33330148  0.59218121
   0.00025286  0.66687417  0.59243590
   0.33308047  0.66687417  0.59243590
   0.66666667  0.66675934  0.59234735
   0.16666667  0.15306545  0.71589256
   0.16666667  0.94671624  0.62192977
   0.16666667  0.71997025  0.62192900
   0.16666667  0.51364805  0.71589134
Direct configuration=     4
   0.16666667  0.16666667  0.40785113
   0.50000000  0.16666667  0.40785113
   0.83333333  0.16666667  0.40785113
   0.16666667  0.50000000  0.40785113
   0.50000000  0.50000000  0.40785113
   0.83333333  0.50000000  0.40785113
   0.16666667  0.83333333  0.40785113
   0.50000000  0.83333333  0.40785113
   0.83333333  0.83333333  0.40785113
   0.00000000  0.00000000  0.46928371
   0.33333333  0.00000000  0.46928371
   0.66666667  0.00000000  0.46928371
   0.00000000  0.33333333  0.46928371
   0.33333333  0.33333333  0.46928371
   0.66666667  0.33333333  0.46928371
   0.00000000  0.66666667  0.46928371
   0.33333333  0.66666667  0.46928371
   0.66666667  0.66666667  0.46928371
   0.16666667  0.16645144  0.53066625
   0.49977531  0.16715510  0.53108672
   0.83355802  0.16715510  0.53108672
   0.16666667  0.50023491  0.53066895
   0.49977854  0.49953491  0.53109249
   0.83355479  0.49953491  0.53109249
   0.16666667  0.83330807  0.53101397
   0.49973862  0.83330422  0.53116343
   0.83359471  0.83330422  0.53116343
   0.00026962  0.99983016  0.59243908
   0.33306371  0.99983016  0.59243908
   0.66666667  0.99993250  0.59234902
   0.99695165  0.33328731  0.59199124
   0.33638169  0.33328731  0.59199124
   0.66666667  0.33330104  0.59218165
   0.00025630  0.66687699  0.59243981
   0.33307703  0.66687699  0.59243981
   0.66666667  0.66676060  0.59235006
   0.16666667  0.15194276  0.71628163
   0.16666667  0.92850458  0.62154860
   0.16666667  0.73818217  0.62154783
   0.16666667  0.51477138  0.71628039
Direct configuration=     5
   0.16666667  0.16666667  0.40785113
   0.50000000  0.16666667  0.40785113
   0.83333333  0.16666667  0.40785113
   0.16666667  0.50000000  0.40785113
   0.50000000  0.50000000  0.40785113
   0.83333333  0.50000000  0.40785113
   0.16666667  0.83333333  0.40785113
   0.50000000  0.83333333  0.40785113
   0.83333333  0.83333333  0.40785113
   0.00000000  0.00000000  0.46928371
   0.33333333  0.00000000  0.46928371
   0.66666667  0.00000000  0.46928371
   0.00000000  0.33333333  0.46928371
   0.33333333  0.33333333  0.46928371
   0.66666667  0.33333333  0.46928371
   0.00000000  0.66666667  0.46928371
   0.33333333  0.66666667  0.46928371
   0.66666667  0.66666667  0.46928371
   0.16666667  0.16645003  0.53066592
   0.49977384  0.16715831  0.53108916
   0.83355950  0.16715831  0.53108916
   0.16666667  0.50023645  0.53066864
   0.49977709  0.49953186  0.53109496
   0.83355625  0.49953186  0.53109496
   0.16666667  0.83330790  0.53101593
   0.49973691  0.83330403  0.53116637
   0.83359643  0.83330403  0.53116637
   0.00027139  0.99982905  0.59244098
   0.33306194  0.99982905  0.59244098
   0.66666667  0.99993206  0.59235034
   0.99693162  0.33328700  0.59199021
   0.33640171  0.33328700  0.59199021
   0.66666667  0.33330083  0.59218186
   0.00025799  0.66687837  0.59244172
   0.33307535  0.66687837  0.59244172
   0.66666667  0.66676122  0.59235138
   0.16666667  0.15139366  0.71647192
   0.16666667  0.91959747  0.62136218
   0.16666667  0.74708942  0.62136140
   0.16666667  0.51532079  0.71647067
Direct configuration=     6
   0.16666667  0.16666667  0.40785113
   0.50000000  0.16666667  0.40785113
   0.83333333  0.16666667  0.40785113
   0.16666667  0.50000000  0.40785113
   0.50000000  0.50000000  0.40785113
   0.83333333  0.50000000  0.40785113
   0.16666667  0.83333333  0.40785113
   0.50000000  0.83333333  0.40785113
   0.83333333  0.83333333  0.40785113
   0.00000000  0.00000000  0.46928371
   0.33333333  0.00000000  0.46928371
   0.66666667  0.00000000  0.46928371
   0.00000000  0.33333333  0.46928371
   0.33333333  0.33333333  0.46928371
   0.66666667  0.33333333  0.46928371
   0.00000000  0.66666667  0.46928371
   0.33333333  0.66666667  0.46928371
   0.66666667  0.66666667  0.46928371
   0.16666667  0.16644962  0.53066582
   0.49977341  0.16715923  0.53108986
   0.83355992  0.16715923  0.53108986
   0.16666667  0.50023690  0.53066855
   0.49977667  0.49953098  0.53109567
   0.83355666  0.49953098  0.53109567
   0.16666667  0.83330785  0.53101649
   0.49973641  0.83330398  0.53116721
   0.83359692  0.83330398  0.53116721
   0.00027190  0.99982873  0.59244153
   0.33306143  0.99982873  0.59244153
   0.66666667  0.99993193  0.59235071
   0.99692588  0.33328692  0.59198991
   0.33640745  0.33328692  0.59198991
   0.66666667  0.33330077  0.59218192
   0.00025847  0.66687877  0.59244227
   0.33307486  0.66687877  0.59244227
   0.66666667  0.66676140  0.59235176
   0.16666667  0.15123624  0.71652647
   0.16666667  0.91704384  0.62130873
   0.16666667  0.74964308  0.62130795
   0.16666667  0.51547830  0.71652523
Direct configuration=     7
   0.16666667  0.16666667  0.40785113
   0.50000000  0.16666667  0.40785113
   0.83333333  0.16666667  0.40785113
   0.16666667  0.50000000  0.40785113
   0.50000000  0.50000000  0.40785113
   0.83333333  0.50000000  0.40785113
   0.16666667  0.83333333  0.40785113
   0.50000000  0.83333333  0.40785113
   0.83333333  0.83333333  0.40785113
   0.00000000  0.00000000  0.46928371
   0.33333333  0.00000000  0.46928371
   0.66666667  0.00000000  0.46928371
   0.00000000  0.33333333  0.46928371
   0.33333333  0.33333333  0.46928371
   0.66666667  0.33333333  0.46928371
   0.00000000  0.66666667  0.46928371
   0.33333333  0.66666667  0.46928371
   0.66666667  0.66666667  0.46928371
   0.16666667  0.16644950  0.53066579
   0.49977328  0.16715951  0.53109007
   0.83356005  0.16715951  0.53109007
   0.16666667  0.50023703  0.53066852
   0.49977654  0.49953071  0.53109589
   0.83355679  0.49953071  0.53109589
   0.16666667  0.83330784  0.53101666
   0.49973626  0.83330396  0.53116747
   0.83359707  0.83330396  0.53116747
   0.00027206  0.99982863  0.59244170
   0.33306128  0.99982863  0.59244170
   0.66666667  0.99993189  0.59235083
   0.99692411  0.33328689  0.59198982
   0.33640922  0.33328689  0.59198982
   0.66666667  0.33330075  0.59218194
   0.00025862  0.66687889  0.59244244
   0.33307471  0.66687889  0.59244244
   0.66666667  0.66676145  0.59235187
   0.16666667  0.15118778  0.71654327
   0.16666667  0.91625783  0.62129228
   0.16666667  0.75042910  0.62129150
   0.16666667  0.51552678  0.71654202
Direct configuration=     8
   0.16666667  0.16666667  0.40785113
   0.50000000  0.16666667  0.40785113
   0.83333333  0.16666667  0.40785113
   0.16666667  0.50000000  0.40785113
   0.50000000  0.50000000  0.40785113
   0.83333333  0.50000000  0.40785113
   0.16666667  0.83333333  0.40785113
   0.50000000  0.83333333  0.40785113
   0.83333333  0.83333333  0.40785113
   0.00000000  0.00000000  0.46928371
   0.33333333  0.00000000  0.46928371
   0.66666667  0.00000000  0.46928371
   0.00000000  0.33333333  0.46928371
   0.33333333  0.33333333  0.46928371
   0.66666667  0.33333333  0.46928371
   0.00000000  0.66666667  0.46928371
   0.33333333  0.66666667  0.46928371
   0.66666667  0.66666667  0.46928371
   0.16666667  0.16794657  0.53065166
   0.49981667  0.16670822  0.53132665
   0.83351666  0.16670822  0.53132665
   0.16666667  0.49876490  0.53065823
   0.49981903  0.49998896  0.53133536
   0.83351430  0.49998896  0.53133536
   0.16666667  0.83329783  0.52989952
   0.50086201  0.83329700  0.53116884
   0.83247133  0.83329700  0.53116884
   0.97223406  0.01729575  0.58891402
   0.36109927  0.01729575  0.58891402
   0.66666667  0.00045053  0.59231061
   0.99704936  0.33325344  0.59220748
   0.33628398  0.33325344  0.59220748
   0.66666667  0.33327896  0.59245345
   0.97220721  0.64944180  0.58890981
   0.36112613  0.64944180  0.58890981
   0.66666667  0.66626902  0.59231148
   0.16666667  0.15916407  0.71616147
   0.16666667  0.90976880  0.63077368
   0.16666667  0.75690435  0.63078340
   0.16666667  0.50750857  0.71617182
Direct configuration=     9
   0.16666667  0.16666667  0.40785113
   0.50000000  0.16666667  0.40785113
   0.83333333  0.16666667  0.40785113
   0.16666667  0.50000000  0.40785113
   0.50000000  0.50000000  0.40785113
   0.83333333  0.50000000  0.40785113
   0.16666667  0.83333333  0.40785113
   0.50000000  0.83333333  0.40785113
   0.83333333  0.83333333  0.40785113
   0.00000000  0.00000000  0.46928371
   0.33333333  0.00000000  0.46928371
   0.66666667  0.00000000  0.46928371
   0.00000000  0.33333333  0.46928371
   0.33333333  0.33333333  0.46928371
   0.66666667  0.33333333  0.46928371
   0.00000000  0.66666667  0.46928371
   0.33333333  0.66666667  0.46928371
   0.66666667  0.66666667  0.46928371
   0.16666667  0.16728495  0.53065791
   0.49979750  0.16690767  0.53122210
   0.83353584  0.16690767  0.53122210
   0.16666667  0.49941550  0.53066278
   0.49980025  0.49978644  0.53122953
   0.83353308  0.49978644  0.53122953
   0.16666667  0.83330226  0.53039323
   0.50036449  0.83330007  0.53116823
   0.83296884  0.83330007  0.53116823
   0.98462521  0.00957631  0.59047305
   0.34870812  0.00957631  0.59047305
   0.66666667  0.00022132  0.59232838
   0.99699401  0.33326822  0.59211129
   0.33633933  0.33326822  0.59211129
   0.66666667  0.33328859  0.59233346
   0.98460429  0.65714797  0.59047102
   0.34872905  0.65714797  0.59047102
   0.66666667  0.66648664  0.59232933
   0.16666667  0.15563902  0.71633020
   0.16666667  0.91263657  0.62658346
   0.16666667  0.75404267  0.62658854
   0.16666667  0.51105215  0.71633542
Direct configuration=    10
   0.16666667  0.16666667  0.40785113
   0.50000000  0.16666667  0.40785113
   0.83333333  0.16666667  0.40785113
   0.16666667  0.50000000  0.40785113
   0.50000000  0.50000000  0.40785113
   0.83333333  0.50000000  0.40785113
   0.16666667  0.83333333  0.40785113
   0.50000000  0.83333333  0.40785113
   0.83333333  0.83333333  0.40785113
   0.00000000  0.00000000  0.46928371
   0.33333333  0.00000000  0.46928371
   0.66666667  0.00000000  0.46928371
   0.00000000  0.33333333  0.46928371
   0.33333333  0.33333333  0.46928371
   0.66666667  0.33333333  0.46928371
   0.00000000  0.66666667  0.46928371
   0.33333333  0.66666667  0.46928371
   0.66666667  0.66666667  0.46928371
   0.16666667  0.16855392  0.53070263
   0.50065016  0.16739230  0.53110730
   0.83268317  0.16739230  0.53110730
   0.16666667  0.49815750  0.53071265
   0.50065308  0.49931415  0.53111568
   0.83268026  0.49931415  0.53111568
   0.16666667  0.83329308  0.52998345
   0.50178789  0.83329907  0.53092823
   0.83154544  0.83329907  0.53092823
   0.97632784  0.01635289  0.58997025
   0.35700549  0.01635289  0.58997025
   0.66666667  0.00052198  0.59234970
   0.99757237  0.33323386  0.59242820
   0.33576096  0.33323386  0.59242820
   0.66666667  0.33326810  0.59266974
   0.97632136  0.65031276  0.58996993
   0.35701197  0.65031276  0.58996993
   0.66666667  0.66622932  0.59235129
   0.16666667  0.16677434  0.71584433
   0.16666667  0.94407327  0.63098161
   0.16666667  0.72262641  0.63099133
   0.16666667  0.49993921  0.71585785
Direct configuration=    11
   0.16666667  0.16666667  0.40785113
   0.50000000  0.16666667  0.40785113
   0.83333333  0.16666667  0.40785113
   0.16666667  0.50000000  0.40785113
   0.50000000  0.50000000  0.40785113
   0.83333333  0.50000000  0.40785113
   0.16666667  0.83333333  0.40785113
   0.50000000  0.83333333  0.40785113
   0.83333333  0.83333333  0.40785113
   0.00000000  0.00000000  0.46928371
   0.33333333  0.00000000  0.46928371
   0.66666667  0.00000000  0.46928371
   0.00000000  0.33333333  0.46928371
   0.33333333  0.33333333  0.46928371
   0.66666667  0.33333333  0.46928371
   0.00000000  0.66666667  0.46928371
   0.33333333  0.66666667  0.46928371
   0.66666667  0.66666667  0.46928371
   0.16666667  0.16796683  0.53068194
   0.50025568  0.16716808  0.53116041
   0.83307766  0.16716808  0.53116041
   0.16666667  0.49873952  0.53068958
   0.50025852  0.49953265  0.53116835
   0.83307482  0.49953265  0.53116835
   0.16666667  0.83329732  0.53017304
   0.50112935  0.83329953  0.53103927
   0.83220398  0.83329953  0.53103927
   0.98016664  0.01321769  0.59020287
   0.35316670  0.01321769  0.59020287
   0.66666667  0.00038288  0.59233984
   0.99730479  0.33324976  0.59228158
   0.33602855  0.33324976  0.59228158
   0.66666667  0.33327758  0.59251416
   0.98015347  0.65347508  0.59020176
   0.35317986  0.65347508  0.59020176
   0.66666667  0.66634837  0.59234113
   0.16666667  0.16162256  0.71606912
   0.16666667  0.92952901  0.62894680
   0.16666667  0.73716122  0.62895437
   0.16666667  0.50508064  0.71607880
Direct configuration=    12
   0.16666667  0.16666667  0.40785113
   0.50000000  0.16666667  0.40785113
   0.83333333  0.16666667  0.40785113
   0.16666667  0.50000000  0.40785113
   0.50000000  0.50000000  0.40785113
   0.83333333  0.50000000  0.40785113
   0.16666667  0.83333333  0.40785113
   0.50000000  0.83333333  0.40785113
   0.83333333  0.83333333  0.40785113
   0.00000000  0.00000000  0.46928371
   0.33333333  0.00000000  0.46928371
   0.66666667  0.00000000  0.46928371
   0.00000000  0.33333333  0.46928371
   0.33333333  0.33333333  0.46928371
   0.66666667  0.33333333  0.46928371
   0.00000000  0.66666667  0.46928371
   0.33333333  0.66666667  0.46928371
   0.66666667  0.66666667  0.46928371
   0.16666667  0.16767724  0.53067173
   0.50006109  0.16705749  0.53118661
   0.83327225  0.16705749  0.53118661
   0.16666667  0.49902660  0.53067819
   0.50006389  0.49964044  0.53119433
   0.83326944  0.49964044  0.53119433
   0.16666667  0.83329942  0.53026655
   0.50080452  0.83329976  0.53109404
   0.83252881  0.83329976  0.53109404
   0.98206018  0.01167120  0.59031762
   0.35127315  0.01167120  0.59031762
   0.66666667  0.00031427  0.59233497
   0.99717280  0.33325760  0.59220926
   0.33616053  0.33325760  0.59220926
   0.66666667  0.33328226  0.59243742
   0.98204372  0.65503495  0.59031612
   0.35128961  0.65503495  0.59031612
   0.66666667  0.66640709  0.59233612
   0.16666667  0.15908137  0.71618000
   0.16666667  0.92235484  0.62794309
   0.16666667  0.74433072  0.62794961
   0.16666667  0.50761672  0.71618779
Direct configuration=    13
   0.16666667  0.16666667  0.40785113
   0.50000000  0.16666667  0.40785113
   0.83333333  0.16666667  0.40785113
   0.16666667  0.50000000  0.40785113
   0.50000000  0.50000000  0.40785113
   0.83333333  0.50000000  0.40785113
   0.16666667  0.83333333  0.40785113
   0.50000000  0.83333333  0.40785113
   0.83333333  0.83333333  0.40785113
   0.00000000  0.00000000  0.46928371
   0.33333333  0.00000000  0.46928371
   0.66666667  0.00000000  0.46928371
   0.00000000  0.33333333  0.46928371
   0.33333333  0.33333333  0.46928371
   0.66666667  0.33333333  0.46928371
   0.00000000  0.66666667  0.46928371
   0.33333333  0.66666667  0.46928371
   0.66666667  0.66666667  0.46928371
   0.16666667  0.16748876  0.53066509
   0.49993444  0.16698550  0.53120366
   0.83339889  0.16698550  0.53120366
   0.16666667  0.49921345  0.53067079
   0.49993723  0.49971059  0.53121124
   0.83339611  0.49971059  0.53121124
   0.16666667  0.83330078  0.53032742
   0.50059311  0.83329991  0.53112969
   0.83274023  0.83329991  0.53112969
   0.98329257  0.01066469  0.59039229
   0.35004076  0.01066469  0.59039229
   0.66666667  0.00026961  0.59233181
   0.99708690  0.33326270  0.59216219
   0.33624644  0.33326270  0.59216219
   0.66666667  0.33328530  0.59238747
   0.98327396  0.65605017  0.59039054
   0.35005937  0.65605017  0.59039054
   0.66666667  0.66644531  0.59233286
   0.16666667  0.15742746  0.71625217
   0.16666667  0.91768562  0.62728985
   0.16666667  0.74899690  0.62729567
   0.16666667  0.50926730  0.71625872
Direct configuration=    14
   0.16666667  0.16666667  0.40785113
   0.50000000  0.16666667  0.40785113
   0.83333333  0.16666667  0.40785113
   0.16666667  0.50000000  0.40785113
   0.50000000  0.50000000  0.40785113
   0.83333333  0.50000000  0.40785113
   0.16666667  0.83333333  0.40785113
   0.50000000  0.83333333  0.40785113
   0.83333333  0.83333333  0.40785113
   0.00000000  0.00000000  0.46928371
   0.33333333  0.00000000  0.46928371
   0.66666667  0.00000000  0.46928371
   0.00000000  0.33333333  0.46928371
   0.33333333  0.33333333  0.46928371
   0.66666667  0.33333333  0.46928371
   0.00000000  0.66666667  0.46928371
   0.33333333  0.66666667  0.46928371
   0.66666667  0.66666667  0.46928371
   0.16666667  0.16754439  0.53066705
   0.49997183  0.16700675  0.53119862
   0.83336151  0.16700675  0.53119862
   0.16666667  0.49915830  0.53067297
   0.49997461  0.49968988  0.53120625
   0.83335872  0.49968988  0.53120625
   0.16666667  0.83330038  0.53030945
   0.50065551  0.83329987  0.53111916
   0.83267782  0.83329987  0.53111916
   0.98292879  0.01096179  0.59037025
   0.35040454  0.01096179  0.59037025
   0.66666667  0.00028279  0.59233274
   0.99711225  0.33326120  0.59217608
   0.33622108  0.33326120  0.59217608
   0.66666667  0.33328440  0.59240221
   0.98291082  0.65575050  0.59036857
   0.35042251  0.65575050  0.59036857
   0.66666667  0.66643403  0.59233382
   0.16666667  0.15791566  0.71623086
   0.16666667  0.91906387  0.62748267
   0.16666667  0.74761955  0.62748870
   0.16666667  0.50878009  0.71623778
Direct configuration=    15
   0.16666667  0.16666667  0.40785113
   0.50000000  0.16666667  0.40785113
   0.83333333  0.16666667  0.40785113
   0.16666667  0.50000000  0.40785113
   0.50000000  0.50000000  0.40785113
   0.83333333  0.50000000  0.40785113
   0.16666667  0.83333333  0.40785113
   0.50000000  0.83333333  0.40785113
   0.83333333  0.83333333  0.40785113
   0.00000000  0.00000000  0.46928371
   0.33333333  0.00000000  0.46928371
   0.66666667  0.00000000  0.46928371
   0.00000000  0.33333333  0.46928371
   0.33333333  0.33333333  0.46928371
   0.66666667  0.33333333  0.46928371
   0.00000000  0.66666667  0.46928371
   0.33333333  0.66666667  0.46928371
   0.66666667  0.66666667  0.46928371
   0.16666667  0.16834749  0.53071054
   0.50085832  0.16772347  0.53097619
   0.83247501  0.16772347  0.53097619
   0.16666667  0.49834780  0.53071987
   0.50086076  0.49897827  0.53098465
   0.83247257  0.49897827  0.53098465
   0.16666667  0.83329247  0.53033215
   0.50171752  0.83329756  0.53087711
   0.83161582  0.83329756  0.53087711
   0.98298318  0.01210329  0.59096356
   0.35035015  0.01210329  0.59096356
   0.66666667  0.00042755  0.59238108
   0.99760577  0.33323559  0.59243507
   0.33572756  0.33323559  0.59243507
   0.66666667  0.33326852  0.59266844
   0.98298050  0.65456864  0.59096265
   0.35035283  0.65456864  0.59096265
   0.66666667  0.66632246  0.59238271
   0.16666667  0.16734469  0.71581658
   0.16666667  0.91918256  0.62914538
   0.16666667  0.74752933  0.62915250
   0.16666667  0.49940265  0.71582798
Direct configuration=    16
   0.16666667  0.16666667  0.40785113
   0.50000000  0.16666667  0.40785113
   0.83333333  0.16666667  0.40785113
   0.16666667  0.50000000  0.40785113
   0.50000000  0.50000000  0.40785113
   0.83333333  0.50000000  0.40785113
   0.16666667  0.83333333  0.40785113
   0.50000000  0.83333333  0.40785113
   0.83333333  0.83333333  0.40785113
   0.00000000  0.00000000  0.46928371
   0.33333333  0.00000000  0.46928371
   0.66666667  0.00000000  0.46928371
   0.00000000  0.33333333  0.46928371
   0.33333333  0.33333333  0.46928371
   0.66666667  0.33333333  0.46928371
   0.00000000  0.66666667  0.46928371
   0.33333333  0.66666667  0.46928371
   0.66666667  0.66666667  0.46928371
   0.16666667  0.17075677  0.53084101
   0.50351781  0.16987361  0.53030889
   0.82981552  0.16987361  0.53030889
   0.16666667  0.49591632  0.53086055
   0.50351919  0.49684343  0.53031986
   0.82981414  0.49684343  0.53031986
   0.16666667  0.83326874  0.53040024
   0.50490354  0.83329064  0.53015094
   0.82842979  0.83329064  0.53015094
   0.98314635  0.01552779  0.59274349
   0.35018699  0.01552779  0.59274349
   0.66666667  0.00086184  0.59252608
   0.99908633  0.33315877  0.59321202
   0.33424700  0.33315877  0.59321202
   0.66666667  0.33322087  0.59346714
   0.98318954  0.65102306  0.59274487
   0.35014380  0.65102306  0.59274487
   0.66666667  0.66598775  0.59252940
   0.16666667  0.19563177  0.71457375
   0.16666667  0.91953864  0.63413351
   0.16666667  0.74725866  0.63414391
   0.16666667  0.47127034  0.71459859
Direct configuration=    17
   0.16666667  0.16666667  0.40785113
   0.50000000  0.16666667  0.40785113
   0.83333333  0.16666667  0.40785113
   0.16666667  0.50000000  0.40785113
   0.50000000  0.50000000  0.40785113
   0.83333333  0.50000000  0.40785113
   0.16666667  0.83333333  0.40785113
   0.50000000  0.83333333  0.40785113
   0.83333333  0.83333333  0.40785113
   0.00000000  0.00000000  0.46928371
   0.33333333  0.00000000  0.46928371
   0.66666667  0.00000000  0.46928371
   0.00000000  0.33333333  0.46928371
   0.33333333  0.33333333  0.46928371
   0.66666667  0.33333333  0.46928371
   0.00000000  0.66666667  0.46928371
   0.33333333  0.66666667  0.46928371
   0.66666667  0.66666667  0.46928371
   0.16666667  0.17557533  0.53110195
   0.50883679  0.17417391  0.52897429
   0.82449654  0.17417391  0.52897429
   0.16666667  0.49105336  0.53114192
   0.50883606  0.49257376  0.52899027
   0.82449728  0.49257376  0.52899027
   0.16666667  0.83322127  0.53053642
   0.51127559  0.83327680  0.52869860
   0.82205775  0.83327680  0.52869860
   0.98347267  0.02237678  0.59630334
   0.34986066  0.02237678  0.59630334
   0.66666667  0.00173040  0.59281608
   0.00204745  0.33300514  0.59476593
   0.33128588  0.33300514  0.59476593
   0.66666667  0.33312557  0.59506452
   0.98360760  0.64393190  0.59630932
   0.34972573  0.64393190  0.59630932
   0.66666667  0.66531832  0.59282277
   0.16666667  0.25220593  0.71208808
   0.16666667  0.92025081  0.64410978
   0.16666667  0.74671733  0.64412672
   0.16666667  0.41500571  0.71213979
Direct configuration=    18
   0.16666667  0.16666667  0.40785113
   0.50000000  0.16666667  0.40785113
   0.83333333  0.16666667  0.40785113
   0.16666667  0.50000000  0.40785113
   0.50000000  0.50000000  0.40785113
   0.83333333  0.50000000  0.40785113
   0.16666667  0.83333333  0.40785113
   0.50000000  0.83333333  0.40785113
   0.83333333  0.83333333  0.40785113
   0.00000000  0.00000000  0.46928371
   0.33333333  0.00000000  0.46928371
   0.66666667  0.00000000  0.46928371
   0.00000000  0.33333333  0.46928371
   0.33333333  0.33333333  0.46928371
   0.66666667  0.33333333  0.46928371
   0.00000000  0.66666667  0.46928371
   0.33333333  0.66666667  0.46928371
   0.66666667  0.66666667  0.46928371
   0.16666667  0.17408271  0.53102112
   0.50718917  0.17284183  0.52938770
   0.82614417  0.17284183  0.52938770
   0.16666667  0.49255973  0.53105476
   0.50718909  0.49389635  0.52940212
   0.82614425  0.49389635  0.52940212
   0.16666667  0.83323597  0.53049424
   0.50930176  0.83328109  0.52914848
   0.82403158  0.83328109  0.52914848
   0.98337159  0.02025521  0.59520063
   0.34996174  0.02025521  0.59520063
   0.66666667  0.00146135  0.59272625
   0.00113021  0.33305273  0.59428458
   0.33220313  0.33305273  0.59428458
   0.66666667  0.33315509  0.59456971
   0.98347810  0.64612849  0.59520519
   0.34985523  0.64612849  0.59520519
   0.66666667  0.66552569  0.59273189
   0.16666667  0.23468131  0.71285805
   0.16666667  0.92003020  0.64101949
   0.16666667  0.74688502  0.64103441
   0.16666667  0.43243445  0.71290144
Direct configuration=    19
   0.16666667  0.16666667  0.40785113
   0.50000000  0.16666667  0.40785113
   0.83333333  0.16666667  0.40785113
   0.16666667  0.50000000  0.40785113
   0.50000000  0.50000000  0.40785113
   0.83333333  0.50000000  0.40785113
   0.16666667  0.83333333  0.40785113
   0.50000000  0.83333333  0.40785113
   0.83333333  0.83333333  0.40785113
   0.00000000  0.00000000  0.46928371
   0.33333333  0.00000000  0.46928371
   0.66666667  0.00000000  0.46928371
   0.00000000  0.33333333  0.46928371
   0.33333333  0.33333333  0.46928371
   0.66666667  0.33333333  0.46928371
   0.00000000  0.66666667  0.46928371
   0.33333333  0.66666667  0.46928371
   0.66666667  0.66666667  0.46928371
   0.16666667  0.17518786  0.53108097
   0.50840909  0.17382812  0.52908161
   0.82492424  0.17382812  0.52908161
   0.16666667  0.49144439  0.53111929
   0.50840852  0.49291708  0.52909718
   0.82492481  0.49291708  0.52909718
   0.16666667  0.83322509  0.53052547
   0.51076321  0.83327791  0.52881538
   0.82257013  0.83327791  0.52881538
   0.98344643  0.02182605  0.59601709
   0.34988690  0.02182605  0.59601709
   0.66666667  0.00166056  0.59279276
   0.00180935  0.33301749  0.59464098
   0.33152399  0.33301749  0.59464098
   0.66666667  0.33313323  0.59493608
   0.98357399  0.64450211  0.59602270
   0.34975935  0.64450211  0.59602270
   0.66666667  0.66537215  0.59279918
   0.16666667  0.24765677  0.71228795
   0.16666667  0.92019354  0.64330758
   0.16666667  0.74676086  0.64332400
   0.16666667  0.41952999  0.71233750
Direct configuration=    20
   0.16666667  0.16666667  0.40785113
   0.50000000  0.16666667  0.40785113
   0.83333333  0.16666667  0.40785113
   0.16666667  0.50000000  0.40785113
   0.50000000  0.50000000  0.40785113
   0.83333333  0.50000000  0.40785113
   0.16666667  0.83333333  0.40785113
   0.50000000  0.83333333  0.40785113
   0.83333333  0.83333333  0.40785113