31
# ORCA AIMD Position Step 0, t=0.00 fs, E_Pot=-926.06822493 Hartree, Unit is Angstrom
Na      0.0000000000      0.0000000000      0.0000000000
 O      1.3246590059      0.0726520003      2.0000000090
 H      0.4210220019     -0.0281260001      2.3080330103
 H      1.4507830065      1.0218580046      1.9314360087
 O     -1.5496400069     -1.3851410062      1.2000000054
 H     -0.7854100035     -0.8105670036      1.2861230058
 H     -1.9298310086     -1.1535700052      0.3494530016
 O      0.0374300002      2.3661360106      0.4000000018
 H      0.6502740029      3.0211150135      0.7420910033
 H     -0.7715150035      2.8563690128      0.2360500011
 O      1.5128200068     -1.8197190081     -0.4000000018
 H      2.2607780101     -2.3655730106     -0.1466180007
 H      0.8535610038     -1.9857030089      0.2778100012
 O     -2.0105990090      0.5267750024     -1.2000000054
 H     -1.1740810053      0.4427220020     -0.7365640033
 H     -2.5703000115      1.0223790046     -0.5977450027
 O      1.0466760047      0.8151500037     -2.0000000090
 H      1.8156570081      0.7443240033     -1.4296920064
 H      1.4039720063      0.7824360035     -2.8904320129
 O      2.7747110124      0.1359370006      3.1500000141
 H      2.8634170128      1.0680200048      2.9379780132
 H      3.6768140165     -0.1708820008      3.2669290146
 O     -2.7290370122     -3.0149390135      1.0500000047
 H     -1.9964350089     -3.1519910141      1.6550710074
 H     -3.0639900137     -2.1430100096      1.2716880057
 O      0.4964030022      4.0362220181     -1.0500000047
 H      0.7085730032      4.4646900200     -0.2175350010
 H     -0.4576660020      4.1132150184     -1.1236540050
 O      1.6325880073     -2.2477010101     -3.1500000141
 H      1.6934800076     -1.2896340058     -3.1494520141
 H      0.7148730032     -2.4303450109     -2.9354280131
31
# ORCA AIMD Position Step 5, t=2.50 fs, E_Pot=-926.07325916 Hartree, Unit is Angstrom
Na      0.0140622472     -0.0041270402      0.0034899763
 O      1.3139787542      0.0922610647      2.0185891223
 H      0.4406623414     -0.0250587589      2.3390282078
 H      1.5101634827      0.9913280102      1.9726696421
 O     -1.5578857667     -1.3734568076      1.1922432417
 H     -0.8358123150     -0.7631616567      1.3043541881
 H     -1.9194213160     -1.1979784763      0.3131816324
 O      0.0476526338      2.3497856398      0.3999732998
 H      0.5951442287      3.0378585239      0.7456277203
 H     -0.7699973852      2.7664866093      0.2119658399
 O      1.5195559699     -1.8276930965     -0.4130109015
 H      2.2694743200     -2.3990912145     -0.1399257157
 H      0.9167695170     -2.0354533645      0.3016571510
 O     -2.0255470433      0.5201952448     -1.2076323816
 H     -1.2400203562      0.4677568556     -0.7467793115
 H     -2.5616965308      1.0005863637     -0.5911181356
 O      1.0472585130      0.8073454469     -1.9984854780
 H      1.8315895166      0.7793182315     -1.4864732156
 H      1.3955581512      0.8741672320     -2.8623053018
 O      2.7871471181      0.1287659251      3.1497428696
 H      2.8220973172      1.0385026072      2.9243793065
 H      3.6680234255     -0.1824301306      3.2848298032
 O     -2.7284204773     -3.0151598387      1.0461097770
 H     -1.9918644112     -3.1275872003      1.6836437405
 H     -3.0828844497     -2.1829685060      1.2682900065
 O      0.4993614719      4.0590611339     -1.0488713906
 H      0.6943995588      4.4672214672     -0.2185000326
 H     -0.4614524217      4.1102388639     -1.1095798807
 O      1.6184356580     -2.2457884466     -3.1510320747
 H      1.7114252286     -1.2540738088     -3.1158782368
 H      0.6808273919     -2.4216426551     -2.9267240794
31
# ORCA AIMD Position Step 10, t=5.00 fs, E_Pot=-926.12455168 Hartree, Unit is Angstrom
Na      0.0375874412     -0.0078459564      0.0054657120
 O      1.2848909304      0.1034117818      2.0191272230
 H      0.3890769679      0.0072983626      2.4324690667
 H      1.5340435303      1.0559920479      2.0027659240
 O     -1.5562164423     -1.3502130251      1.1841082332
 H     -0.8930681870     -0.6869346803      1.4065848723
 H     -1.9204710305     -1.2610006175      0.2671205683
 O      0.0566295527      2.3220640195      0.4065709655
 H      0.5603078012      3.0602904571      0.7610997878
 H     -0.8134014723      2.7033584286      0.1812875320
 O      1.5269795346     -1.8367203642     -0.4231520383
 H      2.2667045148     -2.4041519533     -0.1704443109
 H      0.9686716943     -2.1141999593      0.3442938976
 O     -2.0477008623      0.5121199708     -1.2194944038
 H     -1.2672300101      0.5588780249     -0.7829102994
 H     -2.6094389464      1.0016270049     -0.5730284048
 O      1.0441294443      0.7988002773     -1.9944546008
 H      1.9101841049      0.8161009418     -1.5027721451
 H      1.3877922050      0.9800094505     -2.9126797162
 O      2.8153730610      0.1180746932      3.1629224608
 H      2.8505877925      1.0595306927      2.9384265764
 H      3.7350684856     -0.1799350105      3.3346607303
 O     -2.7326285915     -3.0305990474      1.0414326497
 H     -2.0468889239     -3.1204778582      1.6804460755
 H     -3.1707919962     -2.2099315280      1.3093591788
 O      0.5028734921      4.0862557746     -1.0537444468
 H      0.6953516556      4.5327271641     -0.2095595416
 H     -0.4570741937      4.1292882741     -1.1210863375
 O      1.6032710918     -2.2402813783     -3.1528130964
 H      1.7097144895     -1.3037780766     -3.0798839662
 H      0.6872017555     -2.3989831861     -2.9270889783
31
# ORCA AIMD Position Step 15, t=7.50 fs, E_Pot=-926.18414656 Hartree, Unit is Angstrom
Na      0.0684768413     -0.0119050956      0.0059004296
 O      1.2359626029      0.1145580694      2.0072515362
 H      0.3886001031      0.0837556403      2.5373764545
 H      1.4854617611      1.0702884975      2.0278427795
 O     -1.5466337609     -1.3175021126      1.1751243429
 H     -0.9846102841     -0.5893729380      1.5386784215
 H     -1.8968691806     -1.3232053541      0.2628487431
 O      0.0607535178      2.2882245090      0.4183763592
 H      0.5217804818      3.0642290591      0.7714503638
 H     -0.8188969098      2.6367251800      0.1640134915
 O      1.5312812722     -1.8477559881     -0.4265043802
 H      2.2945009958     -2.3969191564     -0.2453085944
 H      1.0254686737     -2.1827916325      0.3513428239
 O     -2.0819462295      0.5053504560     -1.2325754080
 H     -1.1827078369      0.7097118754     -0.8117722500
 H     -2.6691196745      0.9772131220     -0.6027145406
 O      1.0478676576      0.7909262502     -1.9924416117
 H      1.9343639915      0.8517518120     -1.5411729875
 H      1.3278231024      1.0780614357     -2.9093090833
 O      2.8613949548      0.1062252537      3.1866917708
 H      2.9430564517      1.0611502306      2.9947137161
 H      3.7921705097     -0.1379649285      3.3994311079
 O     -2.7472522550     -3.0543081476      1.0336688602
 H     -2.0853011415     -3.1380378678      1.7070116308
 H     -3.2795312065     -2.2897245064      1.3637882379
 O      0.5078133248      4.1186301880     -1.0601828556
 H      0.6955430330      4.6267501502     -0.2465898835
 H     -0.4478560143      4.1696066267     -1.1542354651
 O      1.5892006689     -2.2377077762     -3.1565450427
 H      1.7059760579     -1.3165591519     -3.0344316924
 H      0.6835159456     -2.3781115622     -2.9238450236
31
# ORCA AIMD Position Step 20, t=10.00 fs, E_Pot=-926.24922938 Hartree, Unit is Angstrom
Na      0.1050816482     -0.0175059183      0.0054850675
 O      1.1701383009      0.1280964313      1.9888079495
 H      0.4631985727      0.1746937247      2.6331964680
 H      1.3963370484      1.0276530770      2.0443195350
 O     -1.5285876977     -1.2775793373      1.1706856480
 H     -1.1435102257     -0.5023053562      1.6284281664
 H     -1.8561092869     -1.3510789421      0.2766937766
 O      0.0602770752      2.2509768448      0.4346512245
 H      0.4752236850      3.0408220943      0.7657656150
 H     -0.7819705438      2.5689964139      0.1602206855
 O      1.5323792137     -1.8605241908     -0.4234962216
 H      2.3631501695     -2.3840371066     -0.3634182094
 H      1.0770714494     -2.2333227021      0.3282209513
 O     -2.1106104699      0.5011732088     -1.2394685362
 H     -1.2502402912      0.8964282879     -0.9619751213
 H     -2.7340075672      0.9300022945     -0.6647112301
 O      1.0586075222      0.7844365621     -1.9933778472
 H      1.9020318907      0.8824815392     -1.5978484480
 H      1.2146365891      1.1598664257     -2.8430941723
 O      2.9225328722      0.0954951867      3.2175873436
 H      3.0623589722      1.0295522021      3.0812454481
 H      3.8221540357     -0.0822188734      3.4768459890
 O     -2.7716096418     -3.0822778242      1.0245768840
 H     -2.1092393299     -3.1739108235      1.7525554280
 H     -3.3727952967     -2.4440275425      1.4066090255
 O      0.5142526256      4.1552034955     -1.0667976948
 H      0.6912507148      4.7381784487     -0.3329702439
 H     -0.4382868790      4.2300614447     -1.2048211251
 O      1.5773218800     -2.2387187697     -3.1626855630
 H      1.7085777268     -1.2694322701     -2.9782449459
 H      0.6441950770     -2.3696850230     -2.9106444338
31
# ORCA AIMD Position Step 25, t=12.50 fs, E_Pot=-926.30391235 Hartree, Unit is Angstrom
Na      0.1446469263     -0.0245748614      0.0038740588
 O      1.0933786258      0.1386825283      1.9663070153
 H      0.5336073973      0.2264245584      2.7600033037
 H      1.3518064310      1.0641999149      2.0359235888
 O     -1.5026965657     -1.2345135710      1.1743069027
 H     -1.3550618529     -0.4130546563      1.6488341549
 H     -1.8331612196     -1.3276453693      0.2716126447
 O      0.0590244998      2.2084971676      0.4550962627
 H      0.4509216650      3.0277403506      0.7555266152
 H     -0.7878595939      2.5299131910      0.1419974797
 O      1.5359557425     -1.8747961165     -0.4184005571
 H      2.4012354932     -2.3354861426     -0.5146344788
 H      1.1046023112     -2.2964859109      0.3320906449
 O     -2.1329593168      0.4971280976     -1.2446431203
 H     -1.4015265770      1.1017478580     -1.1882510305
 H     -2.8367953967      0.8927236849     -0.7116016788
 O      1.0666401485      0.7762358845     -1.9939978410
 H      1.9345326164      0.9193675070     -1.6144344200
 H      1.0810620812      1.2648546837     -2.8272459425
 O      2.9917014848      0.0854810243      3.2525922120
 H      3.1669134666      1.0310691769      3.1658359692
 H      3.8861586298     -0.0715432107      3.5853103412
 O     -2.7975153098     -3.1167976349      1.0173954443
 H     -2.1744661037     -3.2164260494      1.7463403994
 H     -3.4849551954     -2.6055460981      1.4519651659
 O      0.5204421280      4.1930543501     -1.0752594072
 H      0.6940763340      4.8885399298     -0.4227235699
 H     -0.4198134451      4.3072091135     -1.2699117775
 O      1.5646856250     -2.2355404104     -3.1687659124
 H      1.6989287734     -1.2948296077     -2.9335765402
 H      0.6348148531     -2.3636381963     -2.9044989803
31
# ORCA AIMD Position Step 30, t=15.00 fs, E_Pot=-926.32555894 Hartree, Unit is Angstrom
Na      0.1851494904     -0.0327391746      0.0006415751
 O      1.0104368545      0.1524260417      1.9467812742
 H      0.6085115705      0.2105347317      2.8773217721
 H      1.3447127613      1.1058237679      1.9825044510
 O     -1.4707165399     -1.1914630262      1.1823211913
 H     -1.5993756570     -0.3036403031      1.6114923926
 H     -1.8434082180     -1.2540114859      0.2846277212
 O      0.0551583417      2.1643838930      0.4780968877
 H      0.4501435426      3.0210096280      0.7350673610
 H     -0.8035597738      2.5003294682      0.1220749872
 O      1.5412747274     -1.8895260560     -0.4121093940
 H      2.3848145020     -2.2647126920     -0.6692536825
 H      1.1442301121     -2.3744555664      0.3456450852
 O     -2.1546725371      0.4929229037     -1.2486632437
 H     -1.5576603295      1.3218834413     -1.4409281251
 H     -2.9385557307      0.8524947320     -0.7667507641
 O      1.0735783538      0.7679541171     -1.9957979910
 H      1.9870342869      0.9647205380     -1.6286672946
 H      0.9483213770      1.3648334342     -2.8051955082
 O      3.0682497142      0.0780824470      3.2906777281
 H      3.2341189641      1.0493730645      3.2373683645
 H      3.9506589903     -0.1179779240      3.7100903157
 O     -2.8266945404     -3.1558440531      1.0104750741
 H     -2.2333732548     -3.2678275950      1.7282908853
 H     -3.6072180295     -2.7691236960      1.4858929117
 O      0.5260289285      4.2332337683     -1.0832255079
 H      0.7016218259      5.0437753295     -0.5365724921
 H     -0.3899754082      4.3953306979     -1.3482111817
 O      1.5507996483     -2.2301759558     -3.1749159783
 H      1.6865187185     -1.3524781151     -2.8967909245
 H      0.6538955500     -2.3655185906     -2.9061515803
31
# ORCA AIMD Position Step 35, t=17.50 fs, E_Pot=-926.35422578 Hartree, Unit is Angstrom
Na      0.2254373052     -0.0418821792     -0.0045112341
 O      0.9257316936      0.1749261742      1.9376586070
 H      0.7225540025      0.1368496414      2.8987895357
 H      1.3245578615      1.0489906150      1.8939036488
 O     -1.4358512518     -1.1428606310      1.1928129865
 H     -1.8437795026     -0.2584967042      1.5143609029
 H     -1.8850179965     -1.1653172893      0.3367188681
 O      0.0464608924      2.1246822035      0.5019192317
 H      0.4548160165      2.9836750248      0.6911285847
 H     -0.7722430508      2.4496905916      0.1235024743
 O      1.5431768096     -1.9029127966     -0.4029424968
 H      2.3575403359     -2.2174818809     -0.8138146882
 H      1.2363102333     -2.4506981467      0.3253439128
 O     -2.1721577529      0.4978925757     -1.2523303760
 H     -1.8084144347      1.4127739034     -1.6735311683
 H     -3.0015577067      0.7970411923     -0.8541534318
 O      1.0838122583      0.7636651129     -2.0011902717
 H      1.9642176545      1.0096627902     -1.6912590970
 H      0.8466625542      1.4031007989     -2.6921071232
 O      3.1530970340      0.0748023455      3.3322061991
 H      3.2699509156      1.0312045308      3.3007534367
 H      3.9534659297     -0.1906772038      3.8152227277
 O     -2.8642350105     -3.1958847867      1.0031402662
 H     -2.2427210819     -3.3294933369      1.7468777856
 H     -3.6835118799     -2.9613782691      1.4744922529
 O      0.5309652208      4.2785393722     -1.0885030125
 H      0.7136033892      5.1524736503     -0.6958910415
 H     -0.3512013871      4.4829229661     -1.4401122468
 O      1.5384292077     -2.2284298583     -3.1837178857
 H      1.6923741366     -1.3310198075     -2.8429623032
 H      0.6361322729     -2.3908709220     -2.8986849448
31
# ORCA AIMD Position Step 40, t=20.00 fs, E_Pot=-926.35919583 Hartree, Unit is Angstrom
Na      0.2648700261     -0.0521455598     -0.0117931182
 O      0.8412938536      0.1984512026      1.9363769437
 H      0.8560434188      0.0317356821      2.8702661406
 H      1.3152502760      0.9888675953      1.7978996481
 O     -1.4045711706     -1.0832390135      1.2043122211
 H     -2.0178711863     -0.3242733408      1.4091863226
 H     -1.9384476572     -1.1296047836      0.3903305587
 O      0.0364744138      2.0889797241      0.5266795212
 H      0.4751428454      2.9327584288      0.6329166011
 H     -0.7576113036      2.3911488531      0.1166623647
 O      1.5433915783     -1.9132786828     -0.3937273413
 H      2.3090356117     -2.2005781521     -0.9359295400
 H      1.3673328436     -2.5474841297      0.2996591273
 O     -2.1846676375      0.5154322582     -1.2599923541
 H     -2.1269499257      1.3170586408     -1.8380929236
 H     -3.0682520239      0.7296667474     -0.9469078566
 O      1.0937866994      0.7590539814     -2.0076432083
 H      1.9427543088      1.0701504234     -1.7672938213
 H      0.7611467596      1.4326287526     -2.5636446133
 O      3.2399732748      0.0721395626      3.3748522630
 H      3.3049829234      1.0147130444      3.3643153945
 H      3.9380115491     -0.2709015886      3.9144267364
 O     -2.9034939964     -3.2375813431      0.9984460665
 H     -2.2680166010     -3.3835624381      1.7333360661
 H     -3.7418588751     -3.1663300464      1.4424042800
 O      0.5335949550      4.3277710859     -1.0929771716
 H      0.7512805244      5.2373352386     -0.8645797290
 H     -0.3006300114      4.5497374647     -1.5424516320
 O      1.5270853625     -2.2253172155     -3.1925601887
 H      1.6915786157     -1.3196817591     -2.8065029934
 H      0.6130418419     -2.4267980260     -2.8897542171
31
# ORCA AIMD Position Step 45, t=22.50 fs, E_Pot=-926.35764020 Hartree, Unit is Angstrom
Na      0.3030545047     -0.0637088419     -0.0213674315
 O      0.7572201446      0.2179664624      1.9391170449
 H      1.0067501544     -0.0845382382      2.8550336354
 H      1.3441205166      0.9851461949      1.7208342536
 O     -1.3812039660     -1.0160714737      1.2122834112
 H     -2.1127183033     -0.4148120285      1.3878078588
 H     -1.9566930918     -1.2019156618      0.4186373642
 O      0.0267982611      2.0561030405      0.5517950437
 H      0.5183807008      2.8967797517      0.5684161744
 H     -0.7922358992      2.3345370737      0.0865485387
 O      1.5448348291     -1.9221991482     -0.3857957405
 H      2.2163429232     -2.1986943026     -1.0255713134
 H      1.5180014880     -2.6583556546      0.2756611356
 O     -2.1977532678      0.5399540344     -1.2701036112
 H     -2.4138047002      1.1503371107     -1.9923058343
 H     -3.1524150076      0.6250855755     -1.0098138705
 O      1.1019422395      0.7504244107     -2.0132263739
 H      1.9875553941      1.1543240384     -1.8263794880
 H      0.6537443916      1.5046624813     -2.4796510101
 O      3.3232549743      0.0671516535      3.4153434601
 H      3.3656147165      1.0339989084      3.4439532240
 H      3.9513782678     -0.3454737782      4.0347470764
 O     -2.9408160029     -3.2805814471      0.9949634881
 H     -2.3203392770     -3.4254753555      1.6847711384
 H     -3.8200788483     -3.3748247920      1.4183868433
 O      0.5332618242      4.3798756818     -1.0985004292
 H      0.8283760006      5.3176701115     -1.0153693219
 H     -0.2422238594      4.5798727049     -1.6477053556
 O      1.5147020971     -2.2186885566     -3.1990678387
 H      1.6647469544     -1.3688413429     -2.8117190417
 H      0.6353874094     -2.4543824873     -2.8935487336
31
# ORCA AIMD Position Step 50, t=25.00 fs, E_Pot=-926.36199963 Hartree, Unit is Angstrom
Na      0.3397303822     -0.0766334055     -0.0333338772
 O      0.6804293318      0.2377539728      1.9510284831
 H      1.1553328755     -0.1743723333      2.7613296889
 H      1.3420661384      0.9315119738      1.6985524168
 O     -1.3669605742     -0.9481822264      1.2124403607
 H     -2.1717097655     -0.4533981967      1.4794507155
 H     -1.8917160907     -1.3689607530      0.4539982047
 O      0.0144407321      2.0298557267      0.5739235257
 H      0.5504406714      2.8488021904      0.4942874384
 H     -0.7987076952      2.2621824839      0.0761354120
 O      1.5471302399     -1.9345669402     -0.3748840649
 H      2.1088450519     -2.2051192973     -1.1139957117
 H      1.6696345571     -2.7157802043      0.2132228976
 O     -2.2193319940      0.5688588481     -1.2819645835
 H     -2.6127558741      0.9726408927     -2.1682274143
 H     -3.1831298106      0.4657093739     -1.0213266449
 O      1.1121869699      0.7472945539     -2.0206524136
 H      1.9883853276      1.2093990308     -1.8933036818
 H      0.5721221619      1.5202559241     -2.3720088195
 O      3.4045625884      0.0610345848      3.4547890617
 H      3.4565927585      1.0287950375      3.5517952112
 H      3.9531704626     -0.3736707255      4.1406972953
 O     -2.9836252552     -3.3232643403      0.9893916591
 H     -2.3368020802     -3.4714394614      1.6815247488
 H     -3.8540905415     -3.5822055243      1.3767469280
 O      0.5318709535      4.4373752496     -1.1055781834
 H      0.9229289574      5.3432519704     -1.1464951387
 H     -0.1840415204      4.5748659435     -1.7472495874
 O      1.5031210435     -2.2146459266     -3.2067727534
 H      1.6319170011     -1.3663014253     -2.8162286207
 H      0.6521183765     -2.4863426018     -2.8961013266
31
# ORCA AIMD Position Step 55, t=27.50 fs, E_Pot=-926.37068401 Hartree, Unit is Angstrom
Na      0.3747210642     -0.0908849115     -0.0475889161
 O      0.6161722443      0.2560699218      1.9756457621
 H      1.2455195158     -0.2268083866      2.5672770617
 H      1.2993589828      0.8451431288      1.7153846852
 O     -1.3638449217     -0.8830278356      1.2050414792
 H     -2.1721974534     -0.4800350956      1.6161914428
 H     -1.7504506152     -1.5481773646      0.5536734296
 O      0.0004947278      2.0109150389      0.5921468999
 H      0.5521677380      2.7796557174      0.4134006768
 H     -0.7803099296      2.1839466355      0.0863333384
 O      1.5514629197     -1.9515295586     -0.3620656899
 H      1.9926291751     -2.2043743984     -1.2150964990
 H      1.8017525433     -2.7209080483      0.1406510539
 O     -2.2541319698      0.6024524392     -1.3033404226
 H     -2.6792386553      0.7498960411     -2.2465052769
 H     -3.1255366209      0.2807779376     -0.9776888733
 O      1.1242961429      0.7518671828     -2.0302057844
 H      1.9363219659      1.2226137009     -1.9681739290
 H      0.5273902278      1.4576449720     -2.2364666891
 O      3.4847943249      0.0547352977      3.4939189473
 H      3.5664743210      0.9866555516      3.6813578814
 H      3.9342885124     -0.3589157851      4.2221156761
 O     -3.0300622825     -3.3660059233      0.9840272470
 H     -2.3524683533     -3.5187549996      1.6923450144
 H     -3.8291496934     -3.7776234542      1.3147155792
 O      0.5303984381      4.4991032280     -1.1149277117
 H      1.0174897310      5.3140569980     -1.2553914330
 H     -0.1243458277      4.5473248011     -1.8309201992
 O      1.4943212513     -2.2131110203     -3.2160985250
 H      1.5929009721     -1.3029890990     -2.8207296181
 H      0.6297751293     -2.5307551635     -2.8891355793
31
# ORCA AIMD Position Step 60, t=30.00 fs, E_Pot=-926.37114734 Hartree, Unit is Angstrom
Na      0.4078937478     -0.1063359923     -0.0636800467
 O      0.5621009212      0.2689837187      2.0108351209
 H      1.2683814998     -0.3009197053      2.3725429713
 H      1.2763119558      0.8475424294      1.7142125285
 O     -1.3690919271     -0.8228742943      1.1930740794
 H     -2.1126777928     -0.5359426190      1.7303453454
 H     -1.5938519954     -1.6704593342      0.7299643537
 O     -0.0121330695      1.9960415719      0.6082918360
 H      0.5461831200      2.7290617271      0.3265258754
 H     -0.8089527405      2.1206573284      0.0783755651
 O      1.5587863308     -1.9706397633     -0.3534844738
 H      1.8457785005     -2.1789158377     -1.2884095750
 H      1.9246176898     -2.7336996253      0.1125830941
 O     -2.2989179197      0.6361323272     -1.3344144498
 H     -2.6341527103      0.5234098270     -2.2156844646
 H     -3.0046713943      0.1012961526     -0.8883738054
 O      1.1355660880      0.7543979661     -2.0399778274
 H      1.9484394602      1.2543581288     -2.0398714018
 H      0.4432623585      1.4131232979     -2.1158431482
 O      3.5628669927      0.0485095118      3.5309089802
 H      3.6783322618      0.9636645377      3.8141881741
 H      3.9263163762     -0.3621864560      4.3220575601
 O     -3.0726379597     -3.4082485430      0.9811540696
 H     -2.4182232662     -3.5602259649      1.6623308595
 H     -3.8063514509     -3.9758356120      1.2548983400
 O      0.5277412206      4.5602293080     -1.1262680644
 H      1.1244934010      5.2866593292     -1.3507428605
 H     -0.0587921010      4.5130214444     -1.8934526159
 O      1.4855245898     -2.2086659264     -3.2221261165
 H      1.5275048100     -1.2906704063     -2.8758580586
 H      0.6298836368     -2.5596928812     -2.8980147809
31
# ORCA AIMD Position Step 65, t=32.50 fs, E_Pot=-926.35691128 Hartree, Unit is Angstrom
Na      0.4392268852     -0.1226921748     -0.0808741527
 O      0.5220033218      0.2788111207      2.0516715334
 H      1.2282942617     -0.4228189973      2.2314111890
 H      1.2197222141      0.9251661347      1.7189973000
 O     -1.3768377110     -0.7692140551      1.1766086537
 H     -2.0554577892     -0.6125282010      1.8376371377
 H     -1.4651398157     -1.7266920484      0.9570160366
 O     -0.0255797100      1.9856473797      0.6199073577
 H      0.5326190766      2.7034471545      0.2386178999
 H     -0.8534451003      2.0673204455      0.0778987938
 O      1.5686437839     -1.9925272397     -0.3488813267
 H      1.6829659472     -2.1417012404     -1.3120602875
 H      2.0356684575     -2.7334450567      0.1010701547
 O     -2.3476488413      0.6660063614     -1.3629915522
 H     -2.5711161408      0.3134798234     -2.2312981902
 H     -2.8179230075     -0.0315021704     -0.7916228214
 O      1.1461550498      0.7555435913     -2.0497118448
 H      1.9838317967      1.3004957288     -2.1133065173
 H      0.3538327088      1.3810759956     -2.0117711536
 O      3.6406118659      0.0437704289      3.5693876551
 H      3.7768960591      0.9534579315      3.9189704089
 H      3.9161163488     -0.4007718576      4.4123797235
 O     -3.1155464550     -3.4503645377      0.9781943442
 H     -2.4728970534     -3.6093272682      1.6487369876
 H     -3.7777465580     -4.1591702806      1.1848951536
 O      0.5253233844      4.6204007161     -1.1389282935
 H      1.2250406291      5.2521561065     -1.4341259770
 H      0.0084154633      4.4839249922     -1.9433756623
 O      1.4760299785     -2.2032830747     -3.2248878056
 H      1.4419037202     -1.2972859401     -2.9703128351
 H      0.6534985379     -2.5724317867     -2.9309736629
31
# ORCA AIMD Position Step 70, t=35.00 fs, E_Pot=-926.35166634 Hartree, Unit is Angstrom
Na      0.4689297538     -0.1395955701     -0.0983609588
 O      0.5007354129      0.2857987672      2.0950033428
 H      1.1009480896     -0.5146912116      2.1309898883
 H      1.0814671073      0.9924488303      1.7869966054
 O     -1.3885154595     -0.7236435116      1.1572014235
 H     -1.9974227496     -0.6821375286      1.9446538407
 H     -1.3542423171     -1.7224545911      1.1936296672
 O     -0.0412077691      1.9822485420      0.6231050869
 H      0.4861382477      2.6740638523      0.1697998879
 H     -0.8665854515      2.0174834991      0.1202526069
 O      1.5798247429     -2.0169803160     -0.3438453634
 H      1.5415662197     -2.1231257469     -1.3117959079
 H      2.1221207019     -2.6929922037      0.0603548671
 O     -2.3989163487      0.6880982345     -1.3878328980
 H     -2.5065482938      0.1349064040     -2.2619218430
 H     -2.5672528042     -0.0698446841     -0.7352934379
 O      1.1560814886      0.7613836154     -2.0595247407
 H      1.9379298915      1.3174837732     -2.1836695054
 H      0.3564900755      1.3088321574     -1.9298823871
 O      3.7197021065      0.0409823586      3.6142998344
 H      3.8572372095      0.9246492785      3.9744128790
 H      3.8840613110     -0.4516109396      4.4363659966
 O     -3.1623360882     -3.4947780033      0.9747414452
 H     -2.4890004112     -3.6689989297      1.6753973956
 H     -3.7147173639     -4.2879793125      1.0889310582
 O      0.5255532459      4.6810253543     -1.1535623589
 H      1.2852209533      5.1831836901     -1.4915432472
 H      0.0726984128      4.4632497428     -1.9840260239
 O      1.4691523958     -2.2002460986     -3.2269279665
 H      1.3452465049     -1.2382967704     -3.0763635990
 H      0.6347770129     -2.6025240830     -2.9734469133
31
# ORCA AIMD Position Step 75, t=37.50 fs, E_Pot=-926.33284126 Hartree, Unit is Angstrom
Na      0.4974042778     -0.1567322356     -0.1153871228
 O      0.4892429247      0.2865679235      2.1415773345
 H      0.9391668346     -0.5414288793      2.0701872285
 H      0.9483757574      1.0646734902      1.8984374134
 O     -1.4084082659     -0.6898602548      1.1413093190
 H     -1.9018569626     -0.6929036034      1.9982175263
 H     -1.2339532861     -1.6495063348      1.3788641448
 O     -0.0561161518      1.9847335287      0.6193380521
 H      0.4188471203      2.6546806384      0.1216398803
 H     -0.9008389823      1.9731439300      0.1794624559
 O      1.5887925053     -2.0394832097     -0.3380371940
 H      1.4468267338     -2.1402433631     -1.3055561725
 H      2.2179451693     -2.6644471966     -0.0003536632
 O     -2.4502994732      0.6974697199     -1.4162957426
 H     -2.4323898251      0.0609574513     -2.1821860204
 H     -2.2999363005     -0.0117509222     -0.7212713203
 O      1.1647466311      0.7660133013     -2.0690518823
 H      1.8705425077      1.3480138281     -2.2546231413
 H      0.3938458513      1.2510138125     -1.8759219835
 O      3.7986194859      0.0382671053      3.6619205781
 H      3.9317094029      0.9124440041      4.0046466013
 H      3.8437149489     -0.5202041501      4.4303705017
 O     -3.2064903476     -3.5411154018      0.9749515711
 H     -2.5370354419     -3.7178019637      1.6681765893
 H     -3.6508633845     -4.3907585868      0.9747494299
 O      0.5268275659      4.7401343267     -1.1707090660
 H      1.3360812264      5.1100876981     -1.5249723477
 H      0.1280813944      4.4505660581     -2.0050596375
 O      1.4625193455     -2.1947121005     -3.2265525730
 H      1.2486674079     -1.2059208789     -3.2045629889
 H      0.5975198013     -2.6384934865     -3.0374583817
31
# ORCA AIMD Position Step 80, t=40.00 fs, E_Pot=-926.32265031 Hartree, Unit is Angstrom
Na      0.5251690413     -0.1737240250     -0.1313843623
 O      0.4758582186      0.2842888047      2.1935763107
 H      0.8519160468     -0.5698605485      2.0388845637