       N       E                     dE             d eps       ncg     rms          rms(c)
DAV:   1     0.502235523881E+04    0.50224E+04   -0.18178E+05  2850   0.169E+03
DAV:   2     0.902460586342E+03   -0.41199E+04   -0.39286E+04  2850   0.432E+02
DAV:   3    -0.331148257809E+02   -0.93558E+03   -0.84599E+03  3937   0.236E+02
DAV:   4    -0.246193224012E+03   -0.21308E+03   -0.20197E+03  4476   0.114E+02
DAV:   5    -0.261887408994E+03   -0.15694E+02   -0.14819E+02  4524   0.359E+01    0.560E+01
DAV:   6    -0.282482247934E+03   -0.20595E+02   -0.51602E+02  3679   0.164E+02    0.503E+01
DAV:   7    -0.238767594752E+03    0.43715E+02   -0.19101E+02  4188   0.205E+02    0.377E+01
DAV:   8    -0.220661504056E+03    0.18106E+02   -0.15272E+02  4460   0.108E+02    0.156E+01
DAV:   9    -0.217244937916E+03    0.34166E+01   -0.26823E+01  3900   0.431E+01    0.721E+00
DAV:  10    -0.217932879888E+03   -0.68794E+00   -0.18640E+01  4100   0.267E+01    0.623E+00
DAV:  11    -0.217898198216E+03    0.34682E-01   -0.44794E+00  3476   0.247E+01    0.481E+00
DAV:  12    -0.217719201537E+03    0.17900E+00   -0.21213E+00  3612   0.174E+01    0.242E+00
DAV:  13    -0.217694711777E+03    0.24490E-01   -0.82362E-01  3812   0.855E+00    0.163E+00
DAV:  14    -0.217654494006E+03    0.40218E-01   -0.18280E-01  3572   0.648E+00    0.939E-01
DAV:  15    -0.217645470857E+03    0.90231E-02   -0.70230E-02  4436   0.230E+00    0.593E-01
DAV:  16    -0.217642372143E+03    0.30987E-02   -0.36724E-02  3452   0.138E+00    0.402E-01
DAV:  17    -0.217639999401E+03    0.23727E-02   -0.25725E-02  3668   0.178E+00    0.183E-01
DAV:  18    -0.217639975178E+03    0.24222E-04   -0.80244E-03  3706   0.774E-01    0.109E-01
DAV:  19    -0.217639898765E+03    0.76413E-04   -0.71194E-04  3452   0.331E-01    0.803E-02
DAV:  20    -0.217640023932E+03   -0.12517E-03   -0.35504E-04  3540   0.210E-01    0.629E-02
DAV:  21    -0.217640504828E+03   -0.48090E-03   -0.79802E-04  3384   0.248E-01    0.365E-02
DAV:  22    -0.217640963888E+03   -0.45906E-03   -0.24219E-04  3500   0.151E-01    0.412E-02
DAV:  23    -0.217641582112E+03   -0.61822E-03   -0.11078E-04  3664   0.971E-02    0.192E-02
DAV:  24    -0.217641864039E+03   -0.28193E-03   -0.51687E-05  3492   0.776E-02    0.133E-02
DAV:  25    -0.217642121852E+03   -0.25781E-03   -0.26473E-05  3656   0.500E-02    0.134E-02
DAV:  26    -0.217642460552E+03   -0.33870E-03   -0.39451E-05  3746   0.524E-02    0.101E-02
DAV:  27    -0.217642517787E+03   -0.57235E-04   -0.43233E-06  2524   0.206E-02    0.780E-03
DAV:  28    -0.217642577027E+03   -0.59240E-04   -0.42673E-06  2650   0.179E-02    0.480E-03
DAV:  29    -0.217642635068E+03   -0.58042E-04   -0.28198E-06  2264   0.191E-02    0.183E-03
DAV:  30    -0.217642654373E+03   -0.19304E-04   -0.15960E-06  2028   0.739E-03    0.196E-03
DAV:  31    -0.217642665573E+03   -0.11200E-04   -0.74600E-07  1812   0.860E-03    0.174E-03
DAV:  32    -0.217642687247E+03   -0.21674E-04   -0.80570E-07  1851   0.669E-03    0.106E-03
DAV:  33    -0.217642693725E+03   -0.64781E-05   -0.24329E-07  1821   0.432E-03    0.735E-04
DAV:  34    -0.217642697332E+03   -0.36075E-05   -0.27750E-07  1739   0.382E-03    0.934E-04
DAV:  35    -0.217642702586E+03   -0.52532E-05   -0.23226E-07  1814   0.355E-03    0.986E-04
DAV:  36    -0.217642703601E+03   -0.10157E-05   -0.79677E-08  1860   0.211E-03    0.494E-04
DAV:  37    -0.217642704301E+03   -0.69977E-06   -0.63966E-08  1606   0.168E-03
   1 F= -.21764270E+03 E0= -.21757507E+03  d E =-.217643E+03
       N       E                     dE             d eps       ncg     rms          rms(c)
DAV:   1    -0.212048416100E+03    0.55943E+01   -0.49148E+02  2906   0.418E+01    0.636E+00
DAV:   2    -0.214653509023E+03   -0.26051E+01   -0.34731E+01  4751   0.246E+01    0.712E+00
DAV:   3    -0.213820614814E+03    0.83289E+00   -0.82031E+00  4604   0.368E+01    0.517E+00
DAV:   4    -0.213549436326E+03    0.27118E+00   -0.29555E+00  4228   0.232E+01    0.369E+00
DAV:   5    -0.213454721082E+03    0.94715E-01   -0.73911E-01  4378   0.135E+01    0.263E+00
DAV:   6    -0.213416717641E+03    0.38003E-01   -0.54149E-01  4141   0.809E+00    0.797E-01
DAV:   7    -0.213425201047E+03   -0.84834E-02   -0.19129E-01  3708   0.497E+00    0.609E-01
DAV:   8    -0.213424194917E+03    0.10061E-02   -0.45225E-02  3292   0.265E+00    0.302E-01
DAV:   9    -0.213426978676E+03   -0.27838E-02   -0.16680E-02  3507   0.880E-01    0.187E-01
DAV:  10    -0.213428710801E+03   -0.17321E-02   -0.65141E-03  3442   0.107E+00    0.139E-01
DAV:  11    -0.213428591559E+03    0.11924E-03   -0.12018E-03  3476   0.501E-01    0.771E-02
DAV:  12    -0.213428625005E+03   -0.33447E-04   -0.63916E-04  4023   0.202E-01    0.300E-02
DAV:  13    -0.213428836224E+03   -0.21122E-03   -0.17315E-04  4224   0.117E-01    0.216E-02
DAV:  14    -0.213429357331E+03   -0.52111E-03   -0.10656E-04  3558   0.931E-02    0.155E-02
DAV:  15    -0.213429440727E+03   -0.83395E-04   -0.21807E-05  3714   0.393E-02    0.732E-03
DAV:  16    -0.213429609795E+03   -0.16907E-03   -0.13619E-05  3670   0.230E-02    0.517E-03
DAV:  17    -0.213429744492E+03   -0.13470E-03   -0.78372E-06  3099   0.289E-02    0.422E-03
DAV:  18    -0.213429932059E+03   -0.18757E-03   -0.18912E-05  3482   0.164E-02    0.303E-03
DAV:  19    -0.213429970785E+03   -0.38726E-04   -0.21202E-06  2282   0.130E-02    0.222E-03
DAV:  20    -0.213429999106E+03   -0.28321E-04   -0.21680E-06  2202   0.109E-02    0.193E-03
DAV:  21    -0.213430013433E+03   -0.14326E-04   -0.92165E-07  1812   0.653E-03    0.118E-03
DAV:  22    -0.213430016756E+03   -0.33237E-05   -0.45912E-07  1786   0.537E-03    0.738E-04
DAV:  23    -0.213430021902E+03   -0.51461E-05   -0.26542E-07  1684   0.341E-03    0.498E-04
DAV:  24    -0.213430024665E+03   -0.27631E-05   -0.13912E-07  1665   0.275E-03    0.448E-04
DAV:  25    -0.213430027045E+03   -0.23793E-05   -0.10852E-07  1704   0.231E-03    0.255E-04
DAV:  26    -0.213430028293E+03   -0.12481E-05   -0.66360E-08  1680   0.145E-03    0.217E-04
DAV:  27    -0.213430028910E+03   -0.61747E-06   -0.35055E-08  1608   0.115E-03
   2 F= -.21343003E+03 E0= -.21335905E+03  d E =0.421268E+01
       N       E                     dE             d eps       ncg     rms          rms(c)
DAV:   1    -0.216029698191E+03   -0.25997E+01   -0.35167E+02  2858   0.377E+01    0.614E+00
DAV:   2    -0.218839308125E+03   -0.28096E+01   -0.27906E+01  4828   0.217E+01    0.623E+00
DAV:   3    -0.218405922921E+03    0.43339E+00   -0.10309E+01  5186   0.320E+01    0.431E+00
DAV:   4    -0.217922643719E+03    0.48328E+00   -0.10622E+00  3740   0.263E+01    0.273E+00
DAV:   5    -0.217806583451E+03    0.11606E+00   -0.51732E-01  3804   0.779E+00    0.143E+00
DAV:   6    -0.217786823340E+03    0.19760E-01   -0.28102E-01  3572   0.405E+00    0.632E-01
DAV:   7    -0.217789927645E+03   -0.31043E-02   -0.95575E-02  3492   0.379E+00    0.406E-01
DAV:   8    -0.217789365047E+03    0.56260E-03   -0.17188E-02  3428   0.174E+00    0.188E-01
DAV:   9    -0.217789980574E+03   -0.61553E-03   -0.62374E-03  4319   0.731E-01    0.101E-01
DAV:  10    -0.217790331455E+03   -0.35088E-03   -0.30142E-03  3316   0.687E-01    0.670E-02
DAV:  11    -0.217790604700E+03   -0.27325E-03   -0.95820E-04  3332   0.336E-01    0.430E-02
DAV:  12    -0.217790860117E+03   -0.25542E-03   -0.22037E-04  3764   0.160E-01    0.247E-02
DAV:  13    -0.217791117649E+03   -0.25753E-03   -0.11994E-04  3492   0.138E-01    0.141E-02
DAV:  14    -0.217791288931E+03   -0.17128E-03   -0.32545E-05  3668   0.557E-02    0.872E-03
DAV:  15    -0.217791419876E+03   -0.13094E-03   -0.15425E-05  3364   0.488E-02    0.765E-03
DAV:  16    -0.217791635993E+03   -0.21612E-03   -0.15915E-05  3435   0.321E-02    0.594E-03
DAV:  17    -0.217791768804E+03   -0.13281E-03   -0.97277E-06  3036   0.257E-02    0.337E-03
DAV:  18    -0.217791836329E+03   -0.67525E-04   -0.32805E-06  2320   0.173E-02    0.317E-03
DAV:  19    -0.217791885179E+03   -0.48850E-04   -0.36612E-06  2451   0.118E-02    0.125E-03
DAV:  20    -0.217791898729E+03   -0.13551E-04   -0.63210E-07  1924   0.757E-03    0.124E-03
DAV:  21    -0.217791911251E+03   -0.12522E-04   -0.53644E-07  1798   0.582E-03    0.680E-04
DAV:  22    -0.217791921993E+03   -0.10741E-04   -0.35262E-07  1758   0.307E-03    0.466E-04
DAV:  23    -0.217791924614E+03   -0.26211E-05   -0.15887E-07  1884   0.272E-03    0.396E-04
DAV:  24    -0.217791927770E+03   -0.31558E-05   -0.99166E-08  1699   0.202E-03    0.309E-04
DAV:  25    -0.217791929910E+03   -0.21404E-05   -0.71119E-08  1815   0.153E-03    0.232E-04
DAV:  26    -0.217791930346E+03   -0.43563E-06   -0.33079E-08  1652   0.112E-03
   3 F= -.21779193E+03 E0= -.21772176E+03  d E =-.149226E+00
       N       E                     dE             d eps       ncg     rms          rms(c)
DAV:   1    -0.217902584091E+03   -0.11065E+00   -0.12811E+02  2850   0.232E+01    0.166E+00
DAV:   2    -0.218282013853E+03   -0.37943E+00   -0.40570E+00  4388   0.874E+00    0.168E+00
DAV:   3    -0.218245625469E+03    0.36388E-01   -0.25849E-01  3464   0.476E+00    0.870E-01
DAV:   4    -0.218246759154E+03   -0.11337E-02   -0.50282E-02  3872   0.337E+00    0.757E-01
DAV:   5    -0.218241982830E+03    0.47763E-02   -0.33039E-02  3718   0.334E+00    0.621E-01
DAV:   6    -0.218239725506E+03    0.22573E-02   -0.20229E-02  5247   0.188E+00    0.298E-01
DAV:   7    -0.218238635536E+03    0.10900E-02   -0.10325E-02  3890   0.156E+00    0.903E-02
DAV:   8    -0.218238802684E+03   -0.16715E-03   -0.33128E-03  3724   0.387E-01    0.491E-02
DAV:   9    -0.218238797088E+03    0.55958E-05   -0.38930E-04  3500   0.206E-01    0.459E-02
DAV:  10    -0.218238796297E+03    0.79151E-06   -0.19003E-04  3316   0.168E-01    0.292E-02
DAV:  11    -0.218238798963E+03   -0.26661E-05   -0.73733E-05  3495   0.105E-01    0.815E-03
DAV:  12    -0.218238807124E+03   -0.81617E-05   -0.20352E-05  4215   0.500E-02    0.607E-03
DAV:  13    -0.218238812038E+03   -0.49141E-05   -0.50632E-06  2815   0.310E-02    0.197E-03
DAV:  14    -0.218238817187E+03   -0.51486E-05   -0.14928E-06  1823   0.106E-02    0.154E-03
DAV:  15    -0.218238819086E+03   -0.18989E-05   -0.59543E-07  1692   0.811E-03    0.990E-04
DAV:  16    -0.218238823010E+03   -0.39240E-05   -0.35126E-07  1819   0.420E-03    0.483E-04
DAV:  17    -0.218238826309E+03   -0.32988E-05   -0.22736E-07  1775   0.305E-03    0.562E-04
DAV:  18    -0.218238828457E+03   -0.21480E-05   -0.17608E-07  1760   0.304E-03    0.365E-04
DAV:  19    -0.218238830914E+03   -0.24575E-05   -0.16123E-07  1725   0.180E-03    0.369E-04
DAV:  20    -0.218238832260E+03   -0.13461E-05   -0.98218E-08  1781   0.185E-03    0.289E-04
DAV:  21    -0.218238833068E+03   -0.80757E-06   -0.73281E-08  1698   0.146E-03
   4 F= -.21823883E+03 E0= -.21816474E+03  d E =-.446903E+00
       N       E                     dE             d eps       ncg     rms          rms(c)
DAV:   1    -0.216976239221E+03    0.12626E+01   -0.80287E+02  3215   0.635E+01    0.494E+00
DAV:   2    -0.219017599044E+03   -0.20414E+01   -0.22160E+01  4364   0.244E+01    0.422E+00
DAV:   3    -0.218825705382E+03    0.19189E+00   -0.17678E+00  3418   0.173E+01    0.225E+00
DAV:   4    -0.218813621912E+03    0.12083E-01   -0.24946E-01  3588   0.525E+00    0.163E+00
DAV:   5    -0.218815924111E+03   -0.23022E-02   -0.14302E-01  3694   0.578E+00    0.124E+00
DAV:   6    -0.218801476404E+03    0.14448E-01   -0.99593E-02  3604   0.509E+00    0.231E-01
DAV:   7    -0.218807426093E+03   -0.59497E-02   -0.48388E-02  4276   0.250E+00    0.432E-01
DAV:   8    -0.218804221164E+03    0.32049E-02   -0.17000E-02  4360   0.176E+00    0.158E-01
DAV:   9    -0.218804141793E+03    0.79371E-04   -0.39733E-03  3698   0.610E-01    0.142E-01
DAV:  10    -0.218804025951E+03    0.11584E-03   -0.20603E-03  3436   0.535E-01    0.587E-02
DAV:  11    -0.218804076725E+03   -0.50774E-04   -0.44193E-04  3996   0.179E-01    0.244E-02
DAV:  12    -0.218804128150E+03   -0.51424E-04   -0.14504E-04  3392   0.147E-01    0.193E-02
DAV:  13    -0.218804139805E+03   -0.11656E-04   -0.49835E-05  3308   0.105E-01    0.822E-03
DAV:  14    -0.218804160549E+03   -0.20744E-04   -0.14552E-05  3643   0.323E-02    0.427E-03
DAV:  15    -0.218804171865E+03   -0.11316E-04   -0.43138E-06  2852   0.242E-02    0.293E-03
DAV:  16    -0.218804186368E+03   -0.14503E-04   -0.14722E-06  1931   0.100E-02    0.153E-03
DAV:  17    -0.218804197821E+03   -0.11453E-04   -0.81663E-07  1893   0.557E-03    0.125E-03
DAV:  18    -0.218804202464E+03   -0.46433E-05   -0.36857E-07  1868   0.606E-03    0.869E-04
DAV:  19    -0.218804217672E+03   -0.15208E-04   -0.10855E-06  1947   0.407E-03    0.960E-04
DAV:  20    -0.218804220819E+03   -0.31473E-05   -0.24299E-07  1844   0.318E-03    0.658E-04
DAV:  21    -0.218804223143E+03   -0.23237E-05   -0.14293E-07  1731   0.260E-03    0.437E-04
DAV:  22    -0.218804226573E+03   -0.34299E-05   -0.20226E-07  1715   0.187E-03    0.362E-04
DAV:  23    -0.218804227490E+03   -0.91764E-06   -0.87771E-08  1788   0.171E-03
   5 F= -.21880423E+03 E0= -.21873337E+03  d E =-.101230E+01
       N       E                     dE             d eps       ncg     rms          rms(c)
DAV:   1    -0.216555382784E+03    0.22488E+01   -0.20586E+02  2850   0.278E+01    0.434E+00
DAV:   2    -0.217725528766E+03   -0.11701E+01   -0.11975E+01  4788   0.148E+01    0.355E+00
DAV:   3    -0.217794708710E+03   -0.69180E-01   -0.42230E+00  4466   0.222E+01    0.329E+00
DAV:   4    -0.217453346934E+03    0.34136E+00   -0.11225E+00  3604   0.175E+01    0.166E+00
DAV:   5    -0.217413917095E+03    0.39430E-01   -0.24763E-01  4095   0.650E+00    0.878E-01
DAV:   6    -0.217410849247E+03    0.30678E-02   -0.11937E-01  3482   0.461E+00    0.401E-01
DAV:   7    -0.217412011747E+03   -0.11625E-02   -0.36255E-02  3508   0.202E+00    0.234E-01
DAV:   8    -0.217411855908E+03    0.15584E-03   -0.90269E-03  3500   0.106E+00    0.155E-01
DAV:   9    -0.217411908701E+03   -0.52793E-04   -0.45624E-03  3446   0.581E-01    0.707E-02
DAV:  10    -0.217412038898E+03   -0.13020E-03   -0.14247E-03  3412   0.468E-01    0.483E-02
DAV:  11    -0.217412113923E+03   -0.75025E-04   -0.29435E-04  3596   0.220E-01    0.304E-02
DAV:  12    -0.217412276408E+03   -0.16248E-03   -0.17188E-04  3274   0.135E-01    0.154E-02
DAV:  13    -0.217412376073E+03   -0.99665E-04   -0.49508E-05  3564   0.904E-02    0.102E-02
DAV:  14    -0.217412496113E+03   -0.12004E-03   -0.24458E-05  3302   0.529E-02    0.554E-03
DAV:  15    -0.217412573127E+03   -0.77014E-04   -0.72818E-06  3207   0.288E-02    0.407E-03
DAV:  16    -0.217412665340E+03   -0.92213E-04   -0.55671E-06  2790   0.232E-02    0.311E-03
DAV:  17    -0.217412740172E+03   -0.74832E-04   -0.51123E-06  2760   0.170E-02    0.227E-03
DAV:  18    -0.217412769081E+03   -0.28909E-04   -0.13951E-06  2124   0.120E-02    0.189E-03
DAV:  19    -0.217412799560E+03   -0.30479E-04   -0.16952E-06  2070   0.957E-03    0.115E-03
DAV:  20    -0.217412809821E+03   -0.10262E-04   -0.61316E-07  1858   0.524E-03    0.908E-04
DAV:  21    -0.217412816526E+03   -0.67044E-05   -0.42581E-07  1822   0.483E-03    0.577E-04
DAV:  22    -0.217412822680E+03   -0.61546E-05   -0.34610E-07  1822   0.279E-03    0.423E-04
DAV:  23    -0.217412825562E+03   -0.28818E-05   -0.16040E-07  1840   0.252E-03    0.437E-04
DAV:  24    -0.217412826973E+03   -0.14106E-05   -0.95054E-08  1739   0.194E-03    0.263E-04
DAV:  25    -0.217412828132E+03   -0.11595E-05   -0.61949E-08  1719   0.142E-03    0.194E-04
DAV:  26    -0.217412828823E+03   -0.69104E-06   -0.39698E-08  1665   0.108E-03
   6 F= -.21741283E+03 E0= -.21734111E+03  d E =0.139140E+01
       N       E                     dE             d eps       ncg     rms          rms(c)
DAV:   1    -0.218454342966E+03   -0.10415E+01   -0.13407E+02  2850   0.212E+01    0.290E+00
DAV:   2    -0.219001105074E+03   -0.54676E+00   -0.66891E+00  4444   0.839E+00    0.265E+00
DAV:   3    -0.219023413754E+03   -0.22309E-01   -0.11920E+00  3668   0.151E+01    0.258E+00
DAV:   4    -0.218889708166E+03    0.13371E+00   -0.56101E-01  3604   0.104E+01    0.148E+00
DAV:   5    -0.218874312704E+03    0.15395E-01   -0.11679E-01  4343   0.508E+00    0.814E-01
DAV:   6    -0.218870052236E+03    0.42605E-02   -0.80829E-02  3413   0.512E+00    0.390E-01
DAV:   7    -0.218870194004E+03   -0.14177E-03   -0.26230E-02  3698   0.197E+00    0.184E-01
DAV:   8    -0.218870537448E+03   -0.34344E-03   -0.79372E-03  3508   0.880E-01    0.115E-01
DAV:   9    -0.218870974916E+03   -0.43747E-03   -0.31216E-03  3422   0.600E-01    0.721E-02
DAV:  10    -0.218871250364E+03   -0.27545E-03   -0.10110E-03  3402   0.436E-01    0.389E-02
DAV:  11    -0.218871392968E+03   -0.14260E-03   -0.31101E-04  3392   0.197E-01    0.163E-02
DAV:  12    -0.218871508896E+03   -0.11593E-03   -0.74514E-05  3570   0.779E-02    0.122E-02
DAV:  13    -0.218871595925E+03   -0.87029E-04   -0.33394E-05  3294   0.674E-02    0.669E-03
DAV:  14    -0.218871730364E+03   -0.13444E-03   -0.25030E-05  3718   0.326E-02    0.449E-03
DAV:  15    -0.218871759122E+03   -0.28758E-04   -0.31933E-06  2656   0.205E-02    0.295E-03
DAV:  16    -0.218871808013E+03   -0.48891E-04   -0.35668E-06  2334   0.127E-02    0.191E-03
DAV:  17    -0.218871860603E+03   -0.52590E-04   -0.61810E-06  2691   0.845E-03    0.138E-03
DAV:  18    -0.218871874668E+03   -0.14064E-04   -0.89439E-07  2092   0.763E-03    0.132E-03
DAV:  19    -0.218871883202E+03   -0.85342E-05   -0.51643E-07  1891   0.571E-03    0.754E-04
DAV:  20    -0.218871889930E+03   -0.67278E-05   -0.47063E-07  1867   0.382E-03    0.608E-04
DAV:  21    -0.218871892217E+03   -0.22873E-05   -0.24337E-07  1796   0.360E-03    0.446E-04
DAV:  22    -0.218871894622E+03   -0.24047E-05   -0.18074E-07  1714   0.218E-03    0.310E-04
DAV:  23    -0.218871895802E+03   -0.11807E-05   -0.87402E-08  1717   0.188E-03    0.303E-04
DAV:  24    -0.218871896808E+03   -0.10062E-05   -0.58977E-08  1682   0.150E-03    0.190E-04
DAV:  25    -0.218871897338E+03   -0.52940E-06   -0.38361E-08  1692   0.111E-03
   7 F= -.21887190E+03 E0= -.21880081E+03  d E =-.676698E-01
       N       E                     dE             d eps       ncg     rms          rms(c)
DAV:   1    -0.218891732442E+03   -0.19836E-01   -0.57598E+01  2850   0.153E+01    0.124E+00
DAV:   2    -0.219057971185E+03   -0.16624E+00   -0.17637E+00  4380   0.564E+00    0.109E+00
DAV:   3    -0.219060145094E+03   -0.21739E-02   -0.25997E-01  3322   0.629E+00    0.949E-01
DAV:   4    -0.219044248156E+03    0.15897E-01   -0.12038E-01  3478   0.481E+00    0.595E-01
DAV:   5    -0.219040988236E+03    0.32599E-02   -0.18991E-02  4588   0.233E+00    0.377E-01
DAV:   6    -0.219040637590E+03    0.35065E-03   -0.12345E-02  3920   0.145E+00    0.189E-01
DAV:   7    -0.219040362945E+03    0.27464E-03   -0.62170E-03  3406   0.996E-01    0.949E-02
DAV:   8    -0.219040395747E+03   -0.32802E-04   -0.19741E-03  3508   0.476E-01    0.430E-02
DAV:   9    -0.219040421443E+03   -0.25696E-04   -0.47837E-04  3380   0.200E-01    0.310E-02
DAV:  10    -0.219040430331E+03   -0.88876E-05   -0.16501E-04  3312   0.119E-01    0.167E-02
DAV:  11    -0.219040435682E+03   -0.53516E-05   -0.47667E-05  3523   0.745E-02    0.102E-02
DAV:  12    -0.219040438760E+03   -0.30781E-05   -0.16901E-05  3436   0.538E-02    0.534E-03
DAV:  13    -0.219040441961E+03   -0.32005E-05   -0.54223E-06  2763   0.270E-02    0.219E-03
DAV:  14    -0.219040444798E+03   -0.28374E-05   -0.17101E-06  1959   0.139E-02    0.183E-03
DAV:  15    -0.219040446071E+03   -0.12724E-05   -0.76512E-07  1644   0.948E-03    0.962E-04
DAV:  16    -0.219040448197E+03   -0.21263E-05   -0.46507E-07  1827   0.412E-03    0.686E-04
DAV:  17    -0.219040449031E+03   -0.83365E-06   -0.26119E-07  1580   0.382E-03
   8 F= -.21904045E+03 E0= -.21897105E+03  d E =-.168552E+00
       N       E                     dE             d eps       ncg     rms          rms(c)
DAV:   1    -0.218541302869E+03    0.49915E+00   -0.22525E+02  2850   0.308E+01    0.295E+00
DAV:   2    -0.219229988886E+03   -0.68869E+00   -0.73652E+00  4420   0.118E+01    0.217E+00
DAV:   3    -0.219226890435E+03    0.30985E-02   -0.66264E-01  3332   0.122E+01    0.176E+00
DAV:   4    -0.219191641198E+03    0.35249E-01   -0.33427E-01  3508   0.863E+00    0.124E+00
DAV:   5    -0.219179424035E+03    0.12217E-01   -0.96453E-02  4400   0.556E+00    0.882E-01
DAV:   6    -0.219175997478E+03    0.34266E-02   -0.62011E-02  4644   0.325E+00    0.394E-01
DAV:   7    -0.219173955875E+03    0.20416E-02   -0.27065E-02  3916   0.201E+00    0.200E-01
DAV:   8    -0.219174161421E+03   -0.20555E-03   -0.95097E-03  3406   0.107E+00    0.919E-02
DAV:   9    -0.219174268474E+03   -0.10705E-03   -0.22790E-03  3332   0.374E-01    0.581E-02
DAV:  10    -0.219174298796E+03   -0.30322E-04   -0.66630E-04  3260   0.229E-01    0.329E-02
DAV:  11    -0.219174317719E+03   -0.18923E-04   -0.15676E-04  3564   0.154E-01    0.206E-02
DAV:  12    -0.219174327015E+03   -0.92956E-05   -0.63967E-05  3412   0.109E-01    0.883E-03
DAV:  13    -0.219174335803E+03   -0.87877E-05   -0.18900E-05  3602   0.377E-02    0.503E-03
DAV:  14    -0.219174342422E+03   -0.66195E-05   -0.70806E-06  3124   0.343E-02    0.411E-03
DAV:  15    -0.219174345948E+03   -0.35256E-05   -0.17476E-06  1764   0.182E-02    0.184E-03
DAV:  16    -0.219174352755E+03   -0.68076E-05   -0.11534E-06  2034   0.740E-03    0.119E-03
DAV:  17    -0.219174354821E+03   -0.20650E-05   -0.48833E-07  1676   0.644E-03    0.865E-04
DAV:  18    -0.219174357690E+03   -0.28693E-05   -0.36429E-07  1808   0.414E-03    0.566E-04
DAV:  19    -0.219174359977E+03   -0.22877E-05   -0.29546E-07  1725   0.277E-03    0.457E-04
DAV:  20    -0.219174361298E+03   -0.13203E-05   -0.18108E-07  1756   0.255E-03    0.356E-04
DAV:  21    -0.219174361827E+03   -0.52893E-06   -0.11227E-07  1570   0.170E-03
   9 F= -.21917436E+03 E0= -.21910999E+03  d E =-.302464E+00
       N       E                     dE             d eps       ncg     rms          rms(c)
DAV:   1    -0.219215333467E+03   -0.40972E-01   -0.35603E+00  2850   0.376E+00    0.312E-01
DAV:   2    -0.219225528128E+03   -0.10195E-01   -0.11029E-01  4372   0.153E+00    0.277E-01
DAV:   3    -0.219225250479E+03    0.27765E-03   -0.85822E-03  3246   0.143E+00    0.207E-01
DAV:   4    -0.219225052329E+03    0.19815E-03   -0.25120E-03  3412   0.754E-01    0.141E-01
DAV:   5    -0.219225420315E+03   -0.36799E-03   -0.32125E-03  3641   0.939E-01    0.146E-01
DAV:   6    -0.219224856507E+03    0.56381E-03   -0.17960E-03  4879   0.646E-01    0.296E-02
DAV:   7    -0.219224893285E+03   -0.36778E-04   -0.43098E-04  4356   0.190E-01    0.233E-02
DAV:   8    -0.219224895171E+03   -0.18858E-05   -0.10317E-04  3306   0.115E-01    0.116E-02
DAV:   9    -0.219224895724E+03   -0.55332E-06   -0.24551E-05  3336   0.493E-02    0.645E-03
DAV:  10    -0.219224896953E+03   -0.12291E-05   -0.95850E-06  3338   0.319E-02    0.385E-03
DAV:  11    -0.219224897321E+03   -0.36741E-06   -0.23107E-06  1954   0.199E-02
  10 F= -.21922490E+03 E0= -.21916149E+03  d E =-.505355E-01
       N       E                     dE             d eps       ncg     rms          rms(c)
DAV:   1    -0.219222086981E+03    0.28100E-02   -0.31979E+01  2850   0.113E+01    0.976E-01
DAV:   2    -0.219317646188E+03   -0.95559E-01   -0.10335E+00  4436   0.481E+00    0.865E-01
DAV:   3    -0.219314315139E+03    0.33310E-02   -0.80554E-02  3306   0.459E+00    0.639E-01
DAV:   4    -0.219312194941E+03    0.21202E-02   -0.21951E-02  3512   0.230E+00    0.442E-01
DAV:   5    -0.219315297317E+03   -0.31024E-02   -0.26402E-02  3750   0.267E+00    0.444E-01
DAV:   6    -0.219310493466E+03    0.48039E-02   -0.15954E-02  4900   0.198E+00    0.103E-01
DAV:   7    -0.219310750023E+03   -0.25656E-03   -0.42141E-03  4420   0.680E-01    0.742E-02
DAV:   8    -0.219310781820E+03   -0.31798E-04   -0.12026E-03  3380   0.389E-01    0.357E-02
DAV:   9    -0.219310789890E+03   -0.80693E-05   -0.29400E-04  3372   0.147E-01    0.202E-02
DAV:  10    -0.219310799586E+03   -0.96960E-05   -0.85205E-05  3472   0.955E-02    0.136E-02
DAV:  11    -0.219310804015E+03   -0.44297E-05   -0.29711E-05  3426   0.675E-02    0.599E-03
DAV:  12    -0.219310808360E+03   -0.43451E-05   -0.66925E-06  3186   0.243E-02    0.318E-03
DAV:  13    -0.219310810562E+03   -0.22014E-05   -0.19270E-06  1786   0.149E-02    0.224E-03
DAV:  14    -0.219310812519E+03   -0.19568E-05   -0.94075E-07  1770   0.113E-02    0.139E-03
DAV:  15    -0.219310814171E+03   -0.16524E-05   -0.55926E-07  1714   0.620E-03    0.955E-04
DAV:  16    -0.219310815418E+03   -0.12467E-05   -0.36340E-07  1666   0.492E-03    0.570E-04
DAV:  17    -0.219310816241E+03   -0.82288E-06   -0.21212E-07  1602   0.281E-03
  11 F= -.21931082E+03 E0= -.21925063E+03  d E =-.136454E+00
       N       E                     dE             d eps       ncg     rms          rms(c)
DAV:   1    -0.219305995956E+03    0.48195E-02   -0.39867E+00  2850   0.400E+00    0.334E-01
DAV:   2    -0.219317688742E+03   -0.11693E-01   -0.12583E-01  4412   0.170E+00    0.308E-01
DAV:   3    -0.219317305030E+03    0.38371E-03   -0.10728E-02  3276   0.163E+00    0.227E-01
DAV:   4    -0.219317008197E+03    0.29683E-03   -0.29900E-03  3516   0.824E-01    0.153E-01
DAV:   5    -0.219317310232E+03   -0.30203E-03   -0.30363E-03  3697   0.937E-01    0.144E-01
DAV:   6    -0.219316808800E+03    0.50143E-03   -0.18563E-03  4770   0.672E-01    0.311E-02
DAV:   7    -0.219316849517E+03   -0.40717E-04   -0.50225E-04  4340   0.207E-01    0.248E-02
DAV:   8    -0.219316852207E+03   -0.26900E-05   -0.11808E-04  3266   0.125E-01    0.127E-02
DAV:   9    -0.219316853989E+03   -0.17818E-05   -0.31126E-05  3338   0.530E-02    0.704E-03
DAV:  10    -0.219316856025E+03   -0.20360E-05   -0.10212E-05  3402   0.335E-02    0.433E-03
DAV:  11    -0.219316856804E+03   -0.77876E-06   -0.30614E-06  2314   0.227E-02
  12 F= -.21931686E+03 E0= -.21925788E+03  d E =-.142495E+00
       N       E                     dE             d eps       ncg     rms          rms(c)
DAV:   1    -0.219326685742E+03   -0.98297E-02   -0.17365E-01  2874   0.787E-01    0.100E-01
DAV:   2    -0.219327581489E+03   -0.89575E-03   -0.92508E-03  4655   0.435E-01    0.123E-01
DAV:   3    -0.219327330094E+03    0.25139E-03   -0.26673E-03  4234   0.608E-01    0.894E-02
DAV:   4    -0.219327238473E+03    0.91621E-04   -0.37470E-04  3466   0.367E-01    0.593E-02
DAV:   5    -0.219327197354E+03    0.41119E-04   -0.19408E-04  4172   0.113E-01    0.226E-02
DAV:   6    -0.219327197916E+03   -0.56217E-06   -0.64032E-05  3736   0.657E-02    0.120E-02
DAV:   7    -0.219327199117E+03   -0.12009E-05   -0.34187E-05  3298   0.791E-02    0.874E-03
DAV:   8    -0.219327198947E+03    0.16979E-06   -0.51452E-06  2746   0.360E-02
  13 F= -.21932720E+03 E0= -.21926829E+03  d E =-.103421E-01
       N       E                     dE             d eps       ncg     rms          rms(c)
DAV:   1    -0.219336963803E+03   -0.97647E-02   -0.15676E+00  2890   0.236E+00    0.303E-01
DAV:   2    -0.219345035640E+03   -0.80718E-02   -0.83102E-02  4716   0.131E+00    0.369E-01
DAV:   3    -0.219342692466E+03    0.23432E-02   -0.23812E-02  4327   0.183E+00    0.269E-01
DAV:   4    -0.219341860733E+03    0.83173E-03   -0.34022E-03  3496   0.111E+00    0.177E-01
DAV:   5    -0.219341486382E+03    0.37435E-03   -0.18635E-03  4151   0.351E-01    0.643E-02
DAV:   6    -0.219341505186E+03   -0.18804E-04   -0.57286E-04  3632   0.198E-01    0.359E-02
DAV:   7    -0.219341518253E+03   -0.13067E-04   -0.31503E-04  3348   0.241E-01    0.266E-02
DAV:   8    -0.219341516543E+03    0.17091E-05   -0.49140E-05  3400   0.108E-01    0.836E-03
DAV:   9    -0.219341525462E+03   -0.89186E-05   -0.20196E-05  4271   0.333E-02    0.538E-03
DAV:  10    -0.219341528519E+03   -0.30568E-05   -0.63291E-06  2928   0.339E-02    0.363E-03
DAV:  11    -0.219341532144E+03   -0.36256E-05   -0.16217E-06  1735   0.151E-02    0.213E-03
DAV:  12    -0.219341536270E+03   -0.41259E-05   -0.63702E-07  1859   0.875E-03    0.156E-03
DAV:  13    -0.219341539750E+03   -0.34794E-05   -0.53081E-07  1847   0.841E-03    0.866E-04
DAV:  14    -0.219341541872E+03   -0.21221E-05   -0.34068E-07  1688   0.336E-03    0.677E-04
DAV:  15    -0.219341543676E+03   -0.18044E-05   -0.24367E-07  1682   0.357E-03    0.610E-04
DAV:  16    -0.219341546258E+03   -0.25814E-05   -0.18267E-07  1771   0.272E-03    0.424E-04
DAV:  17    -0.219341548311E+03   -0.20530E-05   -0.14826E-07  1803   0.230E-03    0.377E-04
DAV:  18    -0.219341549091E+03   -0.77992E-06   -0.97141E-08  1636   0.188E-03
  14 F= -.21934155E+03 E0= -.21928285E+03  d E =-.246923E-01
       N       E                     dE             d eps       ncg     rms          rms(c)
DAV:   1    -0.219351649322E+03   -0.10101E-01   -0.20971E-01  2850   0.856E-01    0.937E-02
DAV:   2    -0.219352277828E+03   -0.62851E-03   -0.70034E-03  4279   0.263E-01    0.741E-02
DAV:   3    -0.219352261532E+03    0.16296E-04   -0.70062E-04  3575   0.300E-01    0.559E-02
DAV:   4    -0.219352233954E+03    0.27578E-04   -0.38242E-04  3434   0.323E-01    0.430E-02
DAV:   5    -0.219352217744E+03    0.16211E-04   -0.92043E-05  3662   0.198E-01    0.229E-02
DAV:   6    -0.219352220147E+03   -0.24036E-05   -0.41825E-05  4074   0.784E-02    0.693E-03
DAV:   7    -0.219352221358E+03   -0.12107E-05   -0.12051E-05  3756   0.425E-02    0.488E-03
DAV:   8    -0.219352221320E+03    0.37486E-07   -0.42141E-06  2464   0.293E-02
  15 F= -.21935222E+03 E0= -.21929361E+03  d E =-.106722E-01
       N       E                     dE             d eps       ncg     rms          rms(c)
DAV:   1    -0.219377393224E+03   -0.25172E-01   -0.18886E+00  2850   0.257E+00    0.282E-01
DAV:   2    -0.219383068865E+03   -0.56756E-02   -0.63089E-02  4294   0.797E-01    0.221E-01
DAV:   3    -0.219383008376E+03    0.60489E-04   -0.68140E-03  3553   0.990E-01    0.173E-01
DAV:   4    -0.219382638823E+03    0.36955E-03   -0.34165E-03  3426   0.988E-01    0.126E-01
DAV:   5    -0.219382534849E+03    0.10397E-03   -0.75450E-04  3770   0.558E-01    0.684E-02
DAV:   6    -0.219382556740E+03   -0.21891E-04   -0.40760E-04  3732   0.251E-01    0.233E-02
DAV:   7    -0.219382565862E+03   -0.91218E-05   -0.12597E-04  3684   0.152E-01    0.172E-02
DAV:   8    -0.219382565069E+03    0.79355E-06   -0.48426E-05  3156   0.986E-02    0.778E-03
DAV:   9    -0.219382565738E+03   -0.66950E-06   -0.13809E-05  3284   0.307E-02    0.501E-03
DAV:  10    -0.219382566373E+03   -0.63487E-06   -0.52649E-06  2748   0.283E-02
  16 F= -.21938257E+03 E0= -.21932424E+03  d E =-.410173E-01
       N       E                     dE             d eps       ncg     rms          rms(c)
DAV:   1    -0.219414777295E+03   -0.32212E-01   -0.75617E+00  2850   0.513E+00    0.563E-01
DAV:   2    -0.219437700040E+03   -0.22923E-01   -0.25433E-01  4340   0.162E+00    0.442E-01
DAV:   3    -0.219437754437E+03   -0.54396E-04   -0.28597E-02  3464   0.214E+00    0.358E-01
DAV:   4    -0.219435910298E+03    0.18441E-02   -0.13589E-02  3447   0.201E+00    0.247E-01
DAV:   5    -0.219435568998E+03    0.34130E-03   -0.28850E-03  3850   0.107E+00    0.139E-01
DAV:   6    -0.219435638646E+03   -0.69648E-04   -0.17902E-03  3508   0.579E-01    0.562E-02
DAV:   7    -0.219435674464E+03   -0.35818E-04   -0.68081E-04  3476   0.378E-01    0.405E-02
DAV:   8    -0.219435666066E+03    0.83983E-05   -0.22491E-04  3524   0.203E-01    0.146E-02
DAV:   9    -0.219435670726E+03   -0.46603E-05   -0.74251E-05  3680   0.611E-02    0.102E-02
DAV:  10    -0.219435672824E+03   -0.20980E-05   -0.21430E-05  3314   0.505E-02    0.706E-03
DAV:  11    -0.219435673869E+03   -0.10450E-05   -0.58077E-06  2898   0.331E-02    0.356E-03
DAV:  12    -0.219435675659E+03   -0.17901E-05   -0.21956E-06  2008   0.157E-02    0.146E-03
DAV:  13    -0.219435676816E+03   -0.11571E-05   -0.62565E-07  1692   0.890E-03    0.125E-03
DAV:  14    -0.219435677598E+03   -0.78115E-06   -0.45302E-07  1646   0.643E-03
  17 F= -.21943568E+03 E0= -.21937799E+03  d E =-.941285E-01
       N       E                     dE             d eps       ncg     rms          rms(c)
DAV:   1    -0.219423573388E+03    0.12103E-01   -0.30282E+01  2850   0.103E+01    0.114E+00
DAV:   2    -0.219521016550E+03   -0.97443E-01   -0.10704E+00  4380   0.357E+00    0.919E-01
DAV:   3    -0.219521952978E+03   -0.93643E-03   -0.12560E-01  3490   0.483E+00    0.755E-01
DAV:   4    -0.219512473029E+03    0.94799E-02   -0.55674E-02  3444   0.420E+00    0.497E-01
DAV:   5    -0.219511020628E+03    0.14524E-02   -0.12545E-02  4012   0.212E+00    0.301E-01
DAV:   6    -0.219511128755E+03   -0.10813E-03   -0.81651E-03  3484   0.141E+00    0.133E-01
DAV:   7    -0.219511249887E+03   -0.12113E-03   -0.34223E-03  3548   0.848E-01    0.829E-02
DAV:   8    -0.219511215942E+03    0.33945E-04   -0.10505E-03  3612   0.396E-01    0.294E-02
DAV:   9    -0.219511236813E+03   -0.20870E-04   -0.34649E-04  3538   0.127E-01    0.218E-02
DAV:  10    -0.219511242048E+03   -0.52354E-05   -0.92610E-05  3282   0.105E-01    0.141E-02
DAV:  11    -0.219511244990E+03   -0.29419E-05   -0.26856E-05  3594   0.640E-02    0.756E-03
DAV:  12    -0.219511250032E+03   -0.50425E-05   -0.97304E-06  3192   0.331E-02    0.330E-03
DAV:  13    -0.219511253002E+03   -0.29695E-05   -0.25921E-06  2292   0.217E-02    0.242E-03
DAV:  14    -0.219511255425E+03   -0.24235E-05   -0.10891E-06  1771   0.122E-02    0.113E-03
DAV:  15    -0.219511259326E+03   -0.39008E-05   -0.91703E-07  1943   0.653E-03    0.104E-03
DAV:  16    -0.219511260165E+03   -0.83866E-06   -0.29481E-07  1676   0.422E-03
  18 F= -.21951126E+03 E0= -.21945488E+03  d E =-.169711E+00
       N       E                     dE             d eps       ncg     rms          rms(c)
DAV:   1    -0.219141374945E+03    0.36988E+00   -0.12135E+02  2850   0.206E+01    0.240E+00
DAV:   2    -0.219580417625E+03   -0.43904E+00   -0.47695E+00  4332   0.718E+00    0.191E+00
DAV:   3    -0.219589205917E+03   -0.87883E-02   -0.48463E-01  3740   0.943E+00    0.158E+00
DAV:   4    -0.219546978402E+03    0.42228E-01   -0.24328E-01  3464   0.876E+00    0.108E+00
DAV:   5    -0.219538213671E+03    0.87647E-02   -0.52614E-02  3943   0.444E+00    0.675E-01
DAV:   6    -0.219536796643E+03    0.14170E-02   -0.35328E-02  3516   0.310E+00    0.293E-01
DAV:   7    -0.219537302874E+03   -0.50623E-03   -0.14863E-02  3588   0.176E+00    0.168E-01
DAV:   8    -0.219537156000E+03    0.14687E-03   -0.46180E-03  3572   0.822E-01    0.659E-02
DAV:   9    -0.219537249181E+03   -0.93181E-04   -0.16078E-03  3455   0.266E-01    0.476E-02
DAV:  10    -0.219537258842E+03   -0.96616E-05   -0.38546E-04  3264   0.231E-01    0.273E-02
DAV:  11    -0.219537264479E+03   -0.56362E-05   -0.93063E-05  3840   0.119E-01    0.153E-02
DAV:  12    -0.219537282006E+03   -0.17527E-04   -0.46336E-05  3415   0.670E-02    0.683E-03
DAV:  13    -0.219537290562E+03   -0.85563E-05   -0.12518E-05  3460   0.459E-02    0.485E-03
DAV:  14    -0.219537296799E+03   -0.62369E-05   -0.35019E-06  2535   0.241E-02    0.214E-03
DAV:  15    -0.219537307635E+03   -0.10836E-04   -0.24239E-06  2189   0.114E-02    0.184E-03
DAV:  16    -0.219537310002E+03   -0.23664E-05   -0.63187E-07  1756   0.826E-03    0.948E-04
DAV:  17    -0.219537314539E+03   -0.45376E-05   -0.40445E-07  1795   0.396E-03    0.679E-04
DAV:  18    -0.219537317620E+03   -0.30810E-05   -0.30944E-07  1791   0.366E-03    0.599E-04
DAV:  19    -0.219537319856E+03   -0.22360E-05   -0.25792E-07  1779   0.343E-03    0.462E-04
DAV:  20    -0.219537321283E+03   -0.14270E-05   -0.18778E-07  1748   0.203E-03    0.352E-04
DAV:  21    -0.219537322271E+03   -0.98761E-06   -0.12812E-07  1707   0.170E-03
  19 F= -.21953732E+03 E0= -.21948221E+03  d E =-.195773E+00
       N       E                     dE             d eps       ncg     rms          rms(c)
DAV:   1    -0.219509200896E+03    0.28120E-01   -0.13944E+01  2850   0.688E+00    0.769E-01
DAV:   2    -0.219551008796E+03   -0.41808E-01   -0.46593E-01  4324   0.265E+00    0.652E-01
DAV:   3    -0.219547231313E+03    0.37775E-02   -0.30027E-02  3348   0.202E+00    0.394E-01
DAV:   4    -0.219547759410E+03   -0.52810E-03   -0.11900E-02  3475   0.163E+00    0.306E-01
DAV:   5    -0.219548937602E+03   -0.11782E-02   -0.14217E-02  3519   0.225E+00    0.307E-01
DAV:   6    -0.219547270066E+03    0.16675E-02   -0.74881E-03  3591   0.156E+00    0.122E-01
DAV:   7    -0.219547130246E+03    0.13982E-03   -0.20960E-03  4771   0.613E-01    0.425E-02
DAV:   8    -0.219547145912E+03   -0.15666E-04   -0.53530E-04  3908   0.235E-01    0.276E-02
DAV:   9    -0.219547150662E+03   -0.47499E-05   -0.14677E-04  3308   0.133E-01    0.195E-02
DAV:  10    -0.219547151049E+03   -0.38650E-06   -0.37638E-05  3363   0.754E-02    0.732E-03
DAV:  11    -0.219547155940E+03   -0.48914E-05   -0.14290E-05  3829   0.308E-02    0.382E-03
DAV:  12    -0.219547157603E+03   -0.16626E-05   -0.40253E-06  2676   0.247E-02    0.255E-03
DAV:  13    -0.219547159534E+03   -0.19315E-05   -0.10499E-06  1767   0.106E-02    0.112E-03
DAV:  14    -0.219547162221E+03   -0.26870E-05   -0.49514E-07  1919   0.679E-03    0.106E-03
DAV:  15    -0.219547163214E+03   -0.99296E-06   -0.28571E-07  1684   0.506E-03
  20 F= -.21954716E+03 E0= -.21949188E+03  d E =-.205614E+00
       N       E                     dE             d eps       ncg     rms          rms(c)
DAV:   1    -0.219560789083E+03   -0.13627E-01   -0.69607E-01  2850   0.151E+00    0.171E-01
DAV:   2    -0.219562935680E+03   -0.21466E-02   -0.23006E-02  4335   0.484E-01    0.136E-01
DAV:   3    -0.219562979356E+03   -0.43675E-04   -0.31275E-03  3723   0.694E-01    0.116E-01
DAV:   4    -0.219562735077E+03    0.24428E-03   -0.14891E-03  3410   0.682E-01    0.771E-02
DAV:   5    -0.219562701274E+03    0.33803E-04   -0.24370E-04  3681   0.306E-01    0.382E-02
DAV:   6    -0.219562715311E+03   -0.14037E-04   -0.16051E-04  3892   0.120E-01    0.141E-02
DAV:   7    -0.219562718984E+03   -0.36733E-05   -0.57142E-05  3408   0.948E-02    0.111E-02
DAV:   8    -0.219562718067E+03    0.91729E-06   -0.13296E-05  3028   0.578E-02    0.448E-03
DAV:   9    -0.219562718333E+03   -0.26607E-06   -0.39265E-06  2383   0.192E-02
  21 F= -.21956272E+03 E0= -.21950776E+03  d E =-.155551E-01
       N       E                     dE             d eps       ncg     rms          rms(c)
DAV:   1    -0.219583397769E+03   -0.20680E-01   -0.62646E+00  2850   0.452E+00    0.510E-01
DAV:   2    -0.219603002474E+03   -0.19605E-01   -0.20924E-01  4344   0.149E+00    0.409E-01
DAV:   3    -0.219603708505E+03   -0.70603E-03   -0.30012E-02  3758   0.225E+00    0.361E-01
DAV:   4    -0.219601038013E+03    0.26705E-02   -0.13136E-02  3439   0.206E+00    0.225E-01
DAV:   5    -0.219600871626E+03    0.16639E-03   -0.21071E-03  3811   0.845E-01    0.117E-01
DAV:   6    -0.219601039339E+03   -0.16771E-03   -0.15781E-03  3620   0.371E-01    0.407E-02
DAV:   7    -0.219601068010E+03   -0.28671E-04   -0.49849E-04  3600   0.255E-01    0.300E-02
DAV:   8    -0.219601061512E+03    0.64976E-05   -0.11411E-04  3244   0.164E-01    0.138E-02
DAV:   9    -0.219601061669E+03   -0.15681E-06   -0.39530E-05  3835   0.583E-02    0.947E-03
DAV:  10    -0.219601062165E+03   -0.49651E-06   -0.14547E-05  3306   0.458E-02    0.597E-03
DAV:  11    -0.219601062264E+03   -0.98662E-07   -0.41532E-06  2668   0.290E-02
  22 F= -.21960106E+03 E0= -.21954706E+03  d E =-.538990E-01
       N       E                     dE             d eps       ncg     rms          rms(c)
DAV:   1    -0.219566262868E+03    0.34799E-01   -0.25035E+01  2850   0.905E+00    0.102E+00
DAV:   2    -0.219647966195E+03   -0.81703E-01   -0.86278E-01  4362   0.297E+00    0.818E-01
DAV:   3    -0.219651772914E+03   -0.38067E-02   -0.11685E-01  3708   0.456E+00    0.730E-01
DAV:   4    -0.219640543207E+03    0.11230E-01   -0.51327E-02  3473   0.411E+00    0.452E-01
DAV:   5    -0.219639207202E+03    0.13360E-02   -0.82370E-03  3830   0.163E+00    0.248E-01
DAV:   6    -0.219639549074E+03   -0.34187E-03   -0.64153E-03  3532   0.850E-01    0.904E-02
DAV:   7    -0.219639706934E+03   -0.15786E-03   -0.22567E-03  3532   0.613E-01    0.714E-02
DAV:   8    -0.219639669160E+03    0.37774E-04   -0.56311E-04  3260   0.360E-01    0.280E-02
DAV:   9    -0.219639671741E+03   -0.25812E-05   -0.19530E-04  3944   0.122E-01    0.201E-02
DAV:  10    -0.219639675000E+03   -0.32586E-05   -0.86505E-05  3235   0.110E-01    0.138E-02
DAV:  11    -0.219639674721E+03    0.27864E-06   -0.21374E-05  3396   0.600E-02    0.508E-03
DAV:  12    -0.219639676609E+03   -0.18877E-05   -0.71974E-06  2979   0.189E-02    0.249E-03
DAV:  13    -0.219639677676E+03   -0.10674E-05   -0.17912E-06  1708   0.180E-02    0.226E-03
DAV:  14    -0.219639678201E+03   -0.52463E-06   -0.61585E-07  1656   0.958E-03
  23 F= -.21963968E+03 E0= -.21958748E+03  d E =-.925150E-01
       N       E                     dE             d eps       ncg     rms          rms(c)
DAV:   1    -0.219636650451E+03    0.30272E-02   -0.16576E+00  2850   0.234E+00    0.259E-01
DAV:   2    -0.219641681998E+03   -0.50315E-02   -0.54757E-02  4276   0.723E-01    0.203E-01
DAV:   3    -0.219641761396E+03   -0.79398E-04   -0.62102E-03  3820   0.950E-01    0.169E-01
DAV:   4    -0.219641346935E+03    0.41446E-03   -0.34963E-03  3415   0.102E+00    0.126E-01
DAV:   5    -0.219641244188E+03    0.10275E-03   -0.62069E-04  3655   0.507E-01    0.609E-02
DAV:   6    -0.219641318729E+03   -0.74541E-04   -0.35628E-04  3936   0.231E-01    0.292E-02
DAV:   7    -0.219641325163E+03   -0.64344E-05   -0.17311E-04  3450   0.193E-01    0.175E-02
DAV:   8    -0.219641323422E+03    0.17414E-05   -0.33778E-05  3484   0.825E-02    0.707E-03
DAV:   9    -0.219641324112E+03   -0.68964E-06   -0.11595E-05  3384   0.346E-02    0.512E-03
DAV:  10    -0.219641324506E+03   -0.39436E-06   -0.50863E-06  2700   0.289E-02
  24 F= -.21964132E+03 E0= -.21958957E+03  d E =-.941613E-01
       N       E                     dE             d eps       ncg     rms          rms(c)
DAV:   1    -0.219651455297E+03   -0.10131E-01   -0.23961E-01  2850   0.905E-01    0.101E-01
DAV:   2    -0.219652529129E+03   -0.10738E-02   -0.10144E-02  4879   0.487E-01    0.128E-01
DAV:   3    -0.219652257761E+03    0.27137E-03   -0.25110E-03  4231   0.645E-01    0.894E-02
DAV:   4    -0.219652167443E+03    0.90318E-04   -0.40698E-04  3442   0.381E-01    0.586E-02
DAV:   5    -0.219652148954E+03    0.18489E-04   -0.16670E-04  3518   0.124E-01    0.285E-02
DAV:   6    -0.219652149471E+03   -0.51700E-06   -0.98234E-05  3471   0.583E-02    0.991E-03
DAV:   7    -0.219652150327E+03   -0.85623E-06   -0.26608E-05  3759   0.548E-02    0.777E-03
DAV:   8    -0.219652150224E+03    0.10285E-06   -0.45525E-06  2794   0.383E-02
  25 F= -.21965215E+03 E0= -.21960049E+03  d E =-.108257E-01
       N       E                     dE             d eps       ncg     rms          rms(c)
DAV:   1    -0.219665969299E+03   -0.13819E-01   -0.21603E+00  2850   0.271E+00    0.304E-01
DAV:   2    -0.219675692739E+03   -0.97234E-02   -0.91398E-02  4924   0.147E+00    0.384E-01
DAV:   3    -0.219673163741E+03    0.25290E-02   -0.22407E-02  4284   0.194E+00    0.269E-01
DAV:   4    -0.219672343192E+03    0.82055E-03   -0.37249E-03  3399   0.114E+00    0.175E-01
DAV:   5    -0.219672166896E+03    0.17630E-03   -0.16198E-03  3482   0.370E-01    0.825E-02
DAV:   6    -0.219672177877E+03   -0.10982E-04   -0.88284E-04  3511   0.173E-01    0.295E-02
DAV:   7    -0.219672187924E+03   -0.10047E-04   -0.25377E-04  3583   0.181E-01    0.246E-02
DAV:   8    -0.219672184827E+03    0.30967E-05   -0.44899E-05  3372   0.116E-01    0.971E-03
DAV:   9    -0.219672190406E+03   -0.55783E-05   -0.15313E-05  4231   0.344E-02    0.604E-03
DAV:  10    -0.219672193687E+03   -0.32817E-05   -0.60030E-06  2988   0.368E-02    0.468E-03
DAV:  11    -0.219672195508E+03   -0.18203E-05   -0.16232E-06  1660   0.209E-02    0.158E-03
DAV:  12    -0.219672198605E+03   -0.30976E-05   -0.55098E-07  1856   0.729E-03    0.144E-03
DAV:  13    -0.219672200391E+03   -0.17859E-05   -0.46486E-07  1612   0.777E-03    0.898E-04
DAV:  14    -0.219672202408E+03   -0.20171E-05   -0.28658E-07  1764   0.348E-03    0.530E-04
DAV:  15    -0.219672204623E+03   -0.22147E-05   -0.24324E-07  1767   0.318E-03    0.614E-04
DAV:  16    -0.219672205652E+03   -0.10290E-05   -0.13438E-07  1572   0.278E-03    0.388E-04
DAV:  17    -0.219672207144E+03   -0.14918E-05   -0.12217E-07  1783   0.208E-03    0.387E-04
DAV:  18    -0.219672207929E+03   -0.78487E-06   -0.74057E-08  1572   0.172E-03
  26 F= -.21967221E+03 E0= -.21962083E+03  d E =-.308834E-01
       N       E                     dE             d eps       ncg     rms          rms(c)
DAV:   1    -0.219629694409E+03    0.42513E-01   -0.86686E+00  2850   0.541E+00    0.615E-01
DAV:   2    -0.219668565373E+03   -0.38871E-01   -0.36433E-01  4960   0.297E+00    0.771E-01
DAV:   3    -0.219658197578E+03    0.10368E-01   -0.87109E-02  4372   0.387E+00    0.531E-01
DAV:   4    -0.219654963546E+03    0.32340E-02   -0.15133E-02  3425   0.229E+00    0.348E-01
DAV:   5    -0.219654122191E+03    0.84136E-03   -0.72392E-03  3464   0.796E-01    0.154E-01
DAV:   6    -0.219654161775E+03   -0.39584E-04   -0.34901E-03  3487   0.328E-01    0.556E-02
DAV:   7    -0.219654198963E+03   -0.37189E-04   -0.93156E-04  3551   0.351E-01    0.482E-02
DAV:   8    -0.219654183547E+03    0.15417E-04   -0.16926E-04  3388   0.228E-01    0.189E-02
DAV:   9    -0.219654199074E+03   -0.15528E-04   -0.54370E-05  4491   0.611E-02    0.104E-02
DAV:  10    -0.219654209222E+03   -0.10147E-04   -0.21504E-05  3324   0.655E-02    0.838E-03
DAV:  11    -0.219654213517E+03   -0.42950E-05   -0.52820E-06  2927   0.375E-02    0.275E-03
DAV:  12    -0.219654222857E+03   -0.93399E-05   -0.14926E-06  1921   0.138E-02    0.271E-03
DAV:  13    -0.219654227449E+03   -0.45928E-05   -0.11512E-06  1836   0.136E-02    0.163E-03
DAV:  14    -0.219654234226E+03   -0.67764E-05   -0.84732E-07  1879   0.647E-03    0.866E-04
DAV:  15    -0.219654239499E+03   -0.52736E-05   -0.53410E-07  1831   0.486E-03    0.985E-04
DAV:  16    -0.219654243242E+03   -0.37428E-05   -0.36798E-07  1775   0.500E-03    0.623E-04
DAV:  17    -0.219654246511E+03   -0.32688E-05   -0.26518E-07  1823   0.286E-03    0.548E-04
DAV:  18    -0.219654249097E+03   -0.25860E-05   -0.21135E-07  1759   0.267E-03    0.475E-04
DAV:  19    -0.219654250188E+03   -0.10910E-05   -0.14071E-07  1660   0.234E-03    0.324E-04
DAV:  20    -0.219654251793E+03   -0.16047E-05   -0.12440E-07  1770   0.164E-03    0.216E-04
DAV:  21    -0.219654252275E+03   -0.48213E-06   -0.52182E-08  1620   0.122E-03
  27 F= -.21965425E+03 E0= -.21960338E+03  d E =-.129278E-01
       N       E                     dE             d eps       ncg     rms          rms(c)
DAV:   1    -0.219662447689E+03   -0.81959E-02   -0.46320E+00  2850   0.394E+00    0.447E-01
DAV:   2    -0.219681804730E+03   -0.19357E-01   -0.19089E-01  4868   0.203E+00    0.548E-01
DAV:   3    -0.219677239879E+03    0.45649E-02   -0.46251E-02  4232   0.283E+00    0.407E-01
DAV:   4    -0.219675327781E+03    0.19121E-02   -0.79314E-03  3471   0.167E+00    0.264E-01
DAV:   5    -0.219674961606E+03    0.36617E-03   -0.27918E-03  3698   0.537E-01    0.138E-01
DAV:   6    -0.219674991131E+03   -0.29525E-04   -0.19677E-03  3554   0.332E-01    0.530E-02
DAV:   7    -0.219675017424E+03   -0.26293E-04   -0.66560E-04  3580   0.313E-01    0.358E-02
DAV:   8    -0.219675022632E+03   -0.52078E-05   -0.10244E-04  3586   0.160E-01    0.140E-02
DAV:   9    -0.219675043585E+03   -0.20953E-04   -0.38378E-05  3839   0.728E-02    0.111E-02
DAV:  10    -0.219675052987E+03   -0.94026E-05   -0.19745E-05  3404   0.645E-02    0.682E-03
DAV:  11    -0.219675060162E+03   -0.71748E-05   -0.46681E-06  2868   0.291E-02    0.251E-03
DAV:  12    -0.219675068844E+03   -0.86821E-05   -0.15078E-06  1959   0.960E-03    0.175E-03
DAV:  13    -0.219675073929E+03   -0.50850E-05   -0.84773E-07  1823   0.996E-03    0.134E-03
DAV:  14    -0.219675078806E+03   -0.48767E-05   -0.48047E-07  1879   0.569E-03    0.637E-04
DAV:  15    -0.219675082757E+03   -0.39513E-05   -0.34719E-07  1791   0.402E-03    0.769E-04
DAV:  16    -0.219675085590E+03   -0.28324E-05   -0.28611E-07  1740   0.367E-03    0.424E-04
DAV:  17    -0.219675090192E+03   -0.46020E-05   -0.41551E-07  1849   0.240E-03    0.457E-04
DAV:  18    -0.219675091073E+03   -0.88150E-06   -0.13290E-07  1732   0.205E-03
  28 F= -.21967509E+03 E0= -.21962386E+03  d E =-.337666E-01
       N       E                     dE             d eps       ncg     rms          rms(c)
DAV:   1    -0.219685245153E+03   -0.10155E-01   -0.28378E-01  2850   0.101E+00    0.840E-02
DAV:   2    -0.219686050487E+03   -0.80533E-03   -0.84691E-03  4812   0.475E-01    0.904E-02
DAV:   3    -0.219686011690E+03    0.38796E-04   -0.81955E-04  3287   0.454E-01    0.594E-02
DAV:   4    -0.219685990552E+03    0.21138E-04   -0.32333E-04  3386   0.292E-01    0.433E-02
DAV:   5    -0.219685991652E+03   -0.11002E-05   -0.14865E-04  3642   0.214E-01    0.305E-02
DAV:   6    -0.219685992658E+03   -0.10057E-05   -0.76707E-05  3816   0.116E-01    0.866E-03
DAV:   7    -0.219685995152E+03   -0.24936E-05   -0.26560E-05  3823   0.543E-02    0.652E-03
DAV:   8    -0.219685995543E+03   -0.39162E-06   -0.10271E-05  2796   0.358E-02    0.312E-03
DAV:   9    -0.219685995627E+03   -0.83295E-07   -0.19883E-06  1979   0.121E-02
  29 F= -.21968600E+03 E0= -.21963480E+03  d E =-.109046E-01
       N       E                     dE             d eps       ncg     rms          rms(c)
DAV:   1    -0.219710784669E+03   -0.24789E-01   -0.25548E+00  2850   0.303E+00    0.256E-01
DAV:   2    -0.219718275768E+03   -0.74911E-02   -0.78131E-02  4748   0.148E+00    0.280E-01
DAV:   3    -0.219717890958E+03    0.38481E-03   -0.76620E-03  3289   0.142E+00    0.179E-01
DAV:   4    -0.219717668949E+03    0.22201E-03   -0.30312E-03  3386   0.889E-01    0.131E-01
DAV:   5    -0.219717614931E+03    0.54017E-04   -0.13622E-03  3746   0.635E-01    0.912E-02
DAV:   6    -0.219717606644E+03    0.82867E-05   -0.69563E-04  3811   0.341E-01    0.253E-02
DAV:   7    -0.219717625925E+03   -0.19281E-04   -0.22320E-04  3685   0.167E-01    0.201E-02
DAV:   8    -0.219717628712E+03   -0.27871E-05   -0.99551E-05  3196   0.114E-01    0.945E-03
DAV:   9    -0.219717629274E+03   -0.56205E-06   -0.19262E-05  3064   0.357E-02    0.621E-03
DAV:  10    -0.219717629677E+03   -0.40286E-06   -0.59244E-06  2750   0.259E-02
  30 F= -.21971763E+03 E0= -.21966657E+03  d E =-.425386E-01
       N       E                     dE             d eps       ncg     rms          rms(c)
DAV:   1    -0.219748025825E+03   -0.30397E-01   -0.10220E+01  2850   0.606E+00    0.524E-01
DAV:   2    -0.219779051901E+03   -0.31026E-01   -0.32250E-01  4684   0.306E+00    0.571E-01
DAV:   3    -0.219777464132E+03    0.15878E-02   -0.30349E-02  3336   0.289E+00    0.357E-01
DAV:   4    -0.219776515987E+03    0.94815E-03   -0.12291E-02  3378   0.179E+00    0.266E-01
DAV:   5    -0.219776097235E+03    0.41875E-03   -0.57135E-03  3858   0.127E+00    0.184E-01
DAV:   6    -0.219775959355E+03    0.13788E-03   -0.28326E-03  3907   0.676E-01    0.495E-02
DAV:   7    -0.219776029956E+03   -0.70602E-04   -0.85972E-04  3700   0.340E-01    0.408E-02
DAV:   8    -0.219776040431E+03   -0.10474E-04   -0.41110E-04  3186   0.238E-01    0.192E-02
DAV:   9    -0.219776042696E+03   -0.22653E-05   -0.80832E-05  3218   0.720E-02    0.126E-02
DAV:  10    -0.219776043970E+03   -0.12738E-05   -0.24880E-05  3344   0.575E-02    0.867E-03
DAV:  11    -0.219776044125E+03   -0.15483E-06   -0.70702E-06  3023   0.404E-02
  31 F= -.21977604E+03 E0= -.21972520E+03  d E =-.100953E+00
       N       E                     dE             d eps       ncg     rms          rms(c)
DAV:   1    -0.219754487161E+03    0.21557E-01   -0.40883E+01  2850   0.121E+01    0.110E+00
DAV:   2    -0.219886398826E+03   -0.13191E+00   -0.13667E+00  4666   0.623E+00    0.115E+00
DAV:   3    -0.219880302016E+03    0.60968E-02   -0.12252E-01  3472   0.595E+00    0.731E-01
DAV:   4    -0.219875436266E+03    0.48657E-02   -0.51029E-02  3567   0.371E+00    0.539E-01
DAV:   5    -0.219873572277E+03    0.18640E-02   -0.23857E-02  4095   0.252E+00    0.382E-01
DAV:   6    -0.219872428573E+03    0.11437E-02   -0.11870E-02  4027   0.140E+00    0.971E-02
DAV:   7    -0.219872705482E+03   -0.27691E-03   -0.34042E-03  3708   0.654E-01    0.813E-02
DAV:   8    -0.219872745165E+03   -0.39683E-04   -0.17218E-03  3292   0.504E-01    0.410E-02
DAV:   9    -0.219872751003E+03   -0.58376E-05   -0.32851E-04  3266   0.152E-01    0.257E-02
DAV:  10    -0.219872751987E+03   -0.98429E-06   -0.91827E-05  3404   0.107E-01    0.163E-02
DAV:  11    -0.219872753258E+03   -0.12709E-05   -0.32930E-05  3630   0.871E-02    0.695E-03
DAV:  12    -0.219872756270E+03   -0.30118E-05   -0.13373E-05  3356   0.345E-02    0.349E-03
DAV:  13    -0.219872758318E+03   -0.20477E-05   -0.30920E-06  2278   0.180E-02    0.250E-03
DAV:  14    -0.219872759877E+03   -0.15594E-05   -0.12343E-06  1700   0.124E-02    0.171E-03
DAV:  15    -0.219872761065E+03   -0.11882E-05   -0.61750E-07  1758   0.798E-03    0.759E-04
DAV:  16    -0.219872762393E+03   -0.13278E-05   -0.33799E-07  1755   0.410E-03    0.682E-04
DAV:  17    -0.219872762871E+03   -0.47841E-06   -0.22963E-07  1580   0.352E-03
  32 F= -.21987276E+03 E0= -.21982238E+03  d E =-.197672E+00
       N       E                     dE             d eps       ncg     rms          rms(c)
DAV:   1    -0.219450497557E+03    0.42226E+00   -0.16367E+02  2850   0.245E+01    0.253E+00
DAV:   2    -0.220031755353E+03   -0.58126E+00   -0.59988E+00  4610   0.122E+01    0.225E+00
DAV:   3    -0.220019995878E+03    0.11759E-01   -0.50418E-01  3498   0.124E+01    0.159E+00
DAV:   4    -0.219988761569E+03    0.31234E-01   -0.19558E-01  3688   0.829E+00    0.111E+00
DAV:   5    -0.219983073069E+03    0.56885E-02   -0.10090E-01  4094   0.508E+00    0.841E-01
DAV:   6    -0.219976007663E+03    0.70654E-02   -0.53375E-02  3973   0.315E+00    0.205E-01
DAV:   7    -0.219977134745E+03   -0.11271E-02   -0.15489E-02  3732   0.123E+00    0.148E-01
DAV:   8    -0.219977368718E+03   -0.23397E-03   -0.68823E-03  3332   0.959E-01    0.862E-02
DAV:   9    -0.219977367385E+03    0.13335E-05   -0.12882E-03  3356   0.351E-01    0.509E-02
DAV:  10    -0.219977366110E+03    0.12747E-05   -0.35424E-04  3439   0.191E-01    0.318E-02
DAV:  11    -0.219977369667E+03   -0.35571E-05   -0.15309E-04  3694   0.185E-01    0.156E-02
DAV:  12    -0.219977374777E+03   -0.51099E-05   -0.48914E-05  3964   0.767E-02    0.795E-03
DAV:  13    -0.219977381582E+03   -0.68051E-05   -0.20364E-05  3358   0.393E-02    0.467E-03
DAV:  14    -0.219977385261E+03   -0.36786E-05   -0.44207E-06  2596   0.202E-02    0.358E-03
DAV:  15    -0.219977387444E+03   -0.21830E-05   -0.20268E-06  1758   0.161E-02    0.183E-03
DAV:  16    -0.219977390981E+03   -0.35373E-05   -0.89704E-07  1925   0.945E-03    0.116E-03
DAV:  17    -0.219977392572E+03   -0.15908E-05   -0.37726E-07  1700   0.584E-03    0.806E-04
DAV:  18    -0.219977394108E+03   -0.15365E-05   -0.28639E-07  1718   0.395E-03    0.437E-04
DAV:  19    -0.219977395740E+03   -0.16315E-05   -0.23255E-07  1718   0.214E-03    0.357E-04
DAV:  20    -0.219977396546E+03   -0.80606E-06   -0.13207E-07  1716   0.223E-03
  33 F= -.21997740E+03 E0= -.21992769E+03  d E =-.302305E+00
       N       E                     dE             d eps       ncg     rms          rms(c)
DAV:   1    -0.219962099016E+03    0.15297E-01   -0.18001E+01  2850   0.784E+00    0.849E-01
DAV:   2    -0.220026953615E+03   -0.64855E-01   -0.69273E-01  4616   0.471E+00    0.900E-01
DAV:   3    -0.220021580828E+03    0.53728E-02   -0.67611E-02  3348   0.455E+00    0.567E-01
DAV:   4    -0.220018916293E+03    0.26645E-02   -0.25890E-02  3667   0.261E+00    0.410E-01
DAV:   5    -0.220018250354E+03    0.66594E-03   -0.15233E-02  3991   0.201E+00    0.294E-01
DAV:   6    -0.220017386008E+03    0.86435E-03   -0.72404E-03  4198   0.118E+00    0.733E-02
DAV:   7    -0.220017520480E+03   -0.13447E-03   -0.20535E-03  3964   0.527E-01    0.630E-02
DAV:   8    -0.220017556827E+03   -0.36347E-04   -0.96993E-04  3316   0.339E-01    0.300E-02
DAV:   9    -0.220017579932E+03   -0.23104E-04   -0.21669E-04  3359   0.127E-01    0.197E-02
DAV:  10    -0.220017596017E+03   -0.16085E-04   -0.58531E-05  3383   0.790E-02    0.109E-02
DAV:  11    -0.220017612035E+03   -0.16018E-04   -0.19368E-05  3719   0.610E-02    0.651E-03
DAV:  12    -0.220017618542E+03   -0.65074E-05   -0.59929E-06  2956   0.327E-02    0.321E-03
DAV:  13    -0.220017627660E+03   -0.91178E-05   -0.29060E-06  2461   0.176E-02    0.248E-03
DAV:  14    -0.220017633014E+03   -0.53541E-05   -0.12865E-06  1927   0.135E-02    0.144E-03
DAV:  15    -0.220017637295E+03   -0.42805E-05   -0.66720E-07  1844   0.511E-03    0.817E-04
DAV:  16    -0.220017642442E+03   -0.51470E-05   -0.57035E-07  1877   0.507E-03    0.745E-04
DAV:  17    -0.220017644620E+03   -0.21782E-05   -0.24488E-07  1804   0.343E-03    0.524E-04
DAV:  18    -0.220017647559E+03   -0.29391E-05   -0.24443E-07  1787   0.275E-03    0.375E-04
DAV:  19    -0.220017649437E+03   -0.18777E-05   -0.18277E-07  1794   0.226E-03    0.367E-04
DAV:  20    -0.220017650324E+03   -0.88708E-06   -0.11834E-07  1700   0.200E-03
  34 F= -.22001765E+03 E0= -.21996965E+03  d E =-.402538E-01
       N       E                     dE             d eps       ncg     rms          rms(c)
DAV:   1    -0.220017598353E+03    0.51084E-04   -0.16149E-01  2870   0.746E-01    0.783E-02
DAV:   2    -0.220018151678E+03   -0.55333E-03   -0.58818E-03  4678   0.413E-01    0.813E-02
DAV:   3    -0.220018111185E+03    0.40493E-04   -0.58229E-04  3238   0.414E-01    0.532E-02
DAV:   4    -0.220018090927E+03    0.20258E-04   -0.23356E-04  3606   0.250E-01    0.370E-02
DAV:   5    -0.220018086340E+03    0.45873E-05   -0.14750E-04  3756   0.204E-01    0.260E-02
DAV:   6    -0.220018077945E+03    0.83947E-05   -0.66741E-05  4031   0.113E-01    0.638E-03
DAV:   7    -0.220018079322E+03   -0.13765E-05   -0.19637E-05  4060   0.472E-02    0.602E-03
DAV:   8    -0.220018079486E+03   -0.16403E-06   -0.74266E-06  2791   0.287E-02
  35 F= -.22001808E+03 E0= -.21996992E+03  d E =-.406829E-01
       N       E                     dE             d eps       ncg     rms          rms(c)
DAV:   1    -0.220022919763E+03   -0.48404E-02   -0.17087E+00  2850   0.248E+00    0.231E-01
DAV:   2    -0.220028746241E+03   -0.58265E-02   -0.59342E-02  4780   0.114E+00    0.247E-01
DAV:   3    -0.220028285042E+03    0.46120E-03   -0.87771E-03  3487   0.135E+00    0.178E-01
DAV:   4    -0.220027868424E+03    0.41662E-03   -0.23878E-03  3410   0.872E-01    0.113E-01
DAV:   5    -0.220027873665E+03   -0.52409E-05   -0.84664E-04  3514   0.488E-01    0.772E-02
DAV:   6    -0.220027877055E+03   -0.33905E-05   -0.66095E-04  3471   0.415E-01    0.337E-02
DAV:   7    -0.220027881737E+03   -0.46812E-05   -0.23665E-04  3948   0.172E-01    0.151E-02
DAV:   8    -0.220027884002E+03   -0.22653E-05   -0.60450E-05  3372   0.637E-02    0.989E-03
DAV:   9    -0.220027884901E+03   -0.89855E-06   -0.18359E-05  3303   0.459E-02    0.685E-03
DAV:  10    -0.220027885834E+03   -0.93353E-06   -0.52946E-06  2719   0.282E-02
  36 F= -.22002789E+03 E0= -.21997999E+03  d E =-.980635E-02
       N       E                     dE             d eps       ncg     rms          rms(c)
DAV:   1    -0.220025944242E+03    0.19407E-02   -0.22479E+00  2850   0.284E+00    0.265E-01
DAV:   2    -0.220033580776E+03   -0.76365E-02   -0.77827E-02  4756   0.131E+00    0.281E-01
DAV:   3    -0.220032994068E+03    0.58671E-03   -0.11487E-02  3495   0.156E+00    0.203E-01
DAV:   4    -0.220032438673E+03    0.55540E-03   -0.31684E-03  3402   0.999E-01    0.129E-01
DAV:   5    -0.220032449918E+03   -0.11246E-04   -0.11468E-03  3514   0.566E-01    0.892E-02
DAV:   6    -0.220032448039E+03    0.18790E-05   -0.88733E-04  3503   0.479E-01    0.379E-02
DAV:   7    -0.220032456584E+03   -0.85452E-05   -0.31068E-04  3916   0.194E-01    0.173E-02
DAV:   8    -0.220032459417E+03   -0.28329E-05   -0.79101E-05  3324   0.714E-02    0.110E-02
DAV:   9    -0.220032461007E+03   -0.15892E-05   -0.23779E-05  3354   0.532E-02    0.784E-03
DAV:  10    -0.220032462543E+03   -0.15362E-05   -0.73000E-06  3175   0.333E-02    0.252E-03
DAV:  11    -0.220032463897E+03   -0.13540E-05   -0.19826E-06  1756   0.186E-02    0.215E-03
DAV:  12    -0.220032464564E+03   -0.66683E-06   -0.95044E-07  1687   0.109E-02
  37 F= -.22003246E+03 E0= -.21998484E+03  d E =-.143851E-01
       N       E                     dE             d eps       ncg     rms          rms(c)
DAV:   1    -0.220038925258E+03   -0.64614E-02   -0.68720E-01  2850   0.159E+00    0.130E-01
DAV:   2    -0.220040990180E+03   -0.20649E-02   -0.22083E-02  4194   0.507E-01    0.122E-01
DAV:   3    -0.220040901166E+03    0.89014E-04   -0.92779E-04  3336   0.388E-01    0.892E-02
DAV:   4    -0.220040911201E+03   -0.10035E-04   -0.40614E-04  3543   0.354E-01    0.768E-02
DAV:   5    -0.220040969321E+03   -0.58119E-04   -0.60098E-04  3746   0.429E-01    0.602E-02
DAV:   6    -0.220040888396E+03    0.80925E-04   -0.35885E-04  3994   0.332E-01    0.138E-02
DAV:   7    -0.220040895221E+03   -0.68257E-05   -0.93787E-05  4383   0.765E-02    0.105E-02
DAV:   8    -0.220040894825E+03    0.39680E-06   -0.15266E-05  3223   0.489E-02    0.636E-03
DAV:   9    -0.220040894687E+03    0.13772E-06   -0.44623E-06  2642   0.191E-02
  38 F= -.22004089E+03 E0= -.21999319E+03  d E =-.843012E-02
       N       E                     dE             d eps       ncg     rms          rms(c)
DAV:   1    -0.220042954175E+03   -0.20594E-02   -0.61865E+00  2850   0.478E+00    0.399E-01
DAV:   2    -0.220062136715E+03   -0.19183E-01   -0.20524E-01  4210   0.160E+00    0.378E-01
DAV:   3    -0.220061352487E+03    0.78423E-03   -0.84447E-03  3373   0.128E+00    0.273E-01
DAV:   4    -0.220061324062E+03    0.28425E-04   -0.40935E-03  3551   0.114E+00    0.233E-01
DAV:   5    -0.220061625719E+03   -0.30166E-03   -0.54993E-03  4106   0.122E+00    0.171E-01
DAV:   6    -0.220060955078E+03    0.67064E-03   -0.30284E-03  4082   0.928E-01    0.395E-02
DAV:   7    -0.220061023601E+03   -0.68523E-04   -0.80175E-04  4332   0.222E-01    0.311E-02
DAV:   8    -0.220061019276E+03    0.43254E-05   -0.13281E-04  3332   0.150E-01    0.194E-02
DAV:   9    -0.220061016856E+03    0.24197E-05   -0.43844E-05  3424   0.575E-02    0.101E-02
DAV:  10    -0.220061017286E+03   -0.42986E-06   -0.10304E-05  3592   0.415E-02    0.641E-03
DAV:  11    -0.220061017862E+03   -0.57556E-06   -0.54510E-06  2803   0.327E-02
  39 F= -.22006102E+03 E0= -.22001309E+03  d E =-.285533E-01
       N       E                     dE             d eps       ncg     rms          rms(c)
DAV:   1    -0.220003703393E+03    0.57314E-01   -0.24756E+01  2850   0.957E+00    0.823E-01
DAV:   2    -0.220084102497E+03   -0.80399E-01   -0.85773E-01  4246   0.334E+00    0.778E-01
DAV:   3    -0.220080842962E+03    0.32595E-02   -0.34738E-02  3436   0.277E+00    0.553E-01
DAV:   4    -0.220080427203E+03    0.41576E-03   -0.18202E-02  3585   0.241E+00    0.472E-01
DAV:   5    -0.220080682241E+03   -0.25504E-03   -0.22992E-02  4287   0.231E+00    0.328E-01
DAV:   6    -0.220078190917E+03    0.24913E-02   -0.12124E-02  4247   0.175E+00    0.867E-02
DAV:   7    -0.220078443048E+03   -0.25213E-03   -0.31336E-03  4420   0.512E-01    0.687E-02
DAV:   8    -0.220078416305E+03    0.26743E-04   -0.74509E-04  3284   0.339E-01    0.395E-02
DAV:   9    -0.220078408249E+03    0.80563E-05   -0.20352E-04  3500   0.128E-01    0.211E-02
DAV:  10    -0.220078408145E+03    0.10402E-06   -0.41887E-05  3629   0.910E-02    0.130E-02
DAV:  11    -0.220078410742E+03   -0.25972E-05   -0.22975E-05  3569   0.673E-02    0.611E-03
DAV:  12    -0.220078413363E+03   -0.26213E-05   -0.88483E-06  3276   0.334E-02    0.342E-03
DAV:  13    -0.220078415550E+03   -0.21872E-05   -0.31177E-06  2373   0.192E-02    0.187E-03
DAV:  14    -0.220078417222E+03   -0.16713E-05   -0.89657E-07  1676   0.903E-03    0.138E-03
DAV:  15    -0.220078418964E+03   -0.17426E-05   -0.45928E-07  1737   0.702E-03    0.101E-03
DAV:  16    -0.220078421192E+03   -0.22273E-05   -0.39332E-07  1861   0.496E-03    0.472E-04
DAV:  17    -0.220078421900E+03   -0.70845E-06   -0.18726E-07  1628   0.255E-03
  40 F= -.22007842E+03 E0= -.22003006E+03  d E =-.459573E-01
       N       E                     dE             d eps       ncg     rms          rms(c)
DAV:   1    -0.220084263251E+03   -0.58421E-02   -0.10635E+00  2850   0.197E+00    0.178E-01
DAV:   2    -0.220087383476E+03   -0.31202E-02   -0.33987E-02  4251   0.698E-01    0.151E-01
DAV:   3    -0.220087224073E+03    0.15940E-03   -0.16114E-03  3428   0.585E-01    0.102E-01
DAV:   4    -0.220087227689E+03   -0.36159E-05   -0.49033E-04  3458   0.401E-01    0.765E-02
DAV:   5    -0.220087421166E+03   -0.19348E-03   -0.10246E-03  3663   0.527E-01    0.768E-02
DAV:   6    -0.220087231946E+03    0.18922E-03   -0.64491E-04  4034   0.426E-01    0.140E-02
DAV:   7    -0.220087246748E+03   -0.14801E-04   -0.13056E-04  4335   0.913E-02    0.131E-02
DAV:   8    -0.220087246019E+03    0.72934E-06   -0.21126E-05  3124   0.533E-02    0.709E-03
DAV:   9    -0.220087245888E+03    0.13033E-06   -0.62978E-06  2831   0.214E-02
  41 F= -.22008725E+03 E0= -.22003898E+03  d E =-.882399E-02
       N       E                     dE             d eps       ncg     rms          rms(c)
DAV:   1    -0.220079660676E+03    0.75853E-02   -0.95550E+00  2850   0.592E+00    0.546E-01
DAV:   2    -0.220109001279E+03   -0.29341E-01   -0.31998E-01  4251   0.215E+00    0.467E-01
DAV:   3    -0.220107511219E+03    0.14901E-02   -0.14353E-02  3412   0.177E+00    0.307E-01
DAV:   4    -0.220107456893E+03    0.54326E-04   -0.49128E-03  3466   0.129E+00    0.241E-01
DAV:   5    -0.220108749275E+03   -0.12924E-02   -0.92705E-03  3815   0.154E+00    0.220E-01
DAV:   6    -0.220107276659E+03    0.14726E-02   -0.54823E-03  4050   0.122E+00    0.472E-02
DAV:   7    -0.220107404594E+03   -0.12794E-03   -0.12316E-03  4391   0.300E-01    0.425E-02
DAV:   8    -0.220107395811E+03    0.87832E-05   -0.23987E-04  3340   0.172E-01    0.227E-02
DAV:   9    -0.220107394098E+03    0.17130E-05   -0.69086E-05  3455   0.729E-02    0.136E-02
DAV:  10    -0.220107394662E+03   -0.56397E-06   -0.18963E-05  3607   0.629E-02    0.641E-03
DAV:  11    -0.220107396378E+03   -0.17162E-05   -0.72925E-06  3106   0.323E-02    0.398E-03
DAV:  12    -0.220107397593E+03   -0.12149E-05   -0.31056E-06  2343   0.239E-02    0.260E-03
DAV:  13    -0.220107398595E+03   -0.10016E-05   -0.12168E-06  1619   0.121E-02    0.929E-04
DAV:  14    -0.220107399642E+03   -0.10467E-05   -0.53571E-07  1720   0.585E-03    0.966E-04
DAV:  15    -0.220107400514E+03   -0.87282E-06   -0.35105E-07  1595   0.512E-03
  42 F= -.22010740E+03 E0= -.22005939E+03  d E =-.289786E-01
       N       E                     dE             d eps       ncg     rms          rms(c)
DAV:   1    -0.220001370694E+03    0.10603E+00   -0.38085E+01  2850   0.119E+01    0.112E+00
DAV:   2    -0.220127986017E+03   -0.12662E+00   -0.13726E+00  4251   0.441E+00    0.956E-01
DAV:   3    -0.220121833760E+03    0.61523E-02   -0.57751E-02  3412   0.366E+00    0.625E-01
DAV:   4    -0.220121504291E+03    0.32947E-03   -0.22810E-02  3531   0.284E+00    0.508E-01
DAV:   5    -0.220123872043E+03   -0.23678E-02   -0.35662E-02  4027   0.291E+00    0.414E-01
DAV:   6    -0.220119192229E+03    0.46798E-02   -0.19442E-02  4078   0.223E+00    0.110E-01
DAV:   7    -0.220119739864E+03   -0.54764E-03   -0.52436E-03  4596   0.696E-01    0.928E-02
DAV:   8    -0.220119693973E+03    0.45892E-04   -0.12732E-03  3332   0.399E-01    0.458E-02
DAV:   9    -0.220119683621E+03    0.10352E-04   -0.31687E-04  3439   0.148E-01    0.256E-02
DAV:  10    -0.220119685591E+03   -0.19699E-05   -0.74959E-05  3471   0.134E-01    0.141E-02
DAV:  11    -0.220119690348E+03   -0.47577E-05   -0.29863E-05  3557   0.781E-02    0.845E-03
DAV:  12    -0.220119693887E+03   -0.35384E-05   -0.14231E-05  3351   0.466E-02    0.484E-03
DAV:  13    -0.220119696737E+03   -0.28504E-05   -0.59429E-06  2890   0.254E-02    0.198E-03
DAV:  14    -0.220119699261E+03   -0.25234E-05   -0.15661E-06  1908   0.115E-02    0.168E-03
DAV:  15    -0.220119701066E+03   -0.18057E-05   -0.60038E-07  1688   0.844E-03    0.102E-03
DAV:  16    -0.220119704180E+03   -0.31137E-05   -0.41751E-07  1827   0.534E-03    0.594E-04
DAV:  17    -0.220119704980E+03   -0.80030E-06   -0.21801E-07  1644   0.290E-03
  43 F= -.22011970E+03 E0= -.22007224E+03  d E =-.412831E-01
       N       E                     dE             d eps       ncg     rms          rms(c)
DAV:   1    -0.220112442610E+03    0.72616E-02   -0.68533E+00  2850   0.505E+00    0.463E-01
DAV:   2    -0.220134088891E+03   -0.21646E-01   -0.23047E-01  4398   0.178E+00    0.397E-01
DAV:   3    -0.220134270950E+03   -0.18206E-03   -0.21486E-02  3310   0.220E+00    0.331E-01
DAV:   4    -0.220132759672E+03    0.15113E-02   -0.94604E-03  3396   0.170E+00    0.210E-01
DAV:   5    -0.220132933785E+03   -0.17411E-03   -0.34489E-03  3940   0.100E+00    0.138E-01
DAV:   6    -0.220132828649E+03    0.10514E-03   -0.20166E-03  3549   0.834E-01    0.510E-02
DAV:   7    -0.220132875301E+03   -0.46651E-04   -0.73311E-04  3932   0.270E-01    0.281E-02
DAV:   8    -0.220132877963E+03   -0.26621E-05   -0.16525E-04  3236   0.150E-01    0.183E-02
DAV:   9    -0.220132878777E+03   -0.81380E-06   -0.60858E-05  3279   0.749E-02    0.117E-02
DAV:  10    -0.220132879685E+03   -0.90804E-06   -0.20877E-05  3463   0.474E-02    0.719E-03
DAV:  11    -0.220132880344E+03   -0.65961E-06   -0.92950E-06  3095   0.410E-02
  44 F= -.22013288E+03 E0= -.22008576E+03  d E =-.131754E-01
       N       E                     dE             d eps       ncg     rms          rms(c)
DAV:   1    -0.220112590747E+03    0.20289E-01   -0.87799E+00  2850   0.572E+00    0.524E-01
DAV:   2    -0.220140524185E+03   -0.27933E-01   -0.29707E-01  4409   0.201E+00    0.449E-01
DAV:   3    -0.220140808713E+03   -0.28453E-03   -0.27355E-02  3294   0.248E+00    0.375E-01
DAV:   4    -0.220138867225E+03    0.19415E-02   -0.12201E-02  3399   0.193E+00    0.238E-01
DAV:   5    -0.220138976219E+03   -0.10899E-03   -0.44885E-03  4010   0.113E+00    0.155E-01
DAV:   6    -0.220138862574E+03    0.11365E-03   -0.25745E-03  3565   0.941E-01    0.579E-02
DAV:   7    -0.220138921115E+03   -0.58541E-04   -0.92182E-04  3932   0.305E-01    0.312E-02
DAV:   8    -0.220138924491E+03   -0.33756E-05   -0.20769E-04  3228   0.168E-01    0.209E-02
DAV:   9    -0.220138925704E+03   -0.12132E-05   -0.80599E-05  3308   0.879E-02    0.132E-02
DAV:  10    -0.220138926831E+03   -0.11267E-05   -0.26936E-05  3426   0.524E-02    0.787E-03
DAV:  11    -0.220138927909E+03   -0.10782E-05   -0.11808E-05  3196   0.464E-02    0.376E-03
DAV:  12    -0.220138928701E+03   -0.79180E-06   -0.26433E-06  2119   0.191E-02
  45 F= -.22013893E+03 E0= -.22009220E+03  d E =-.192237E-01
       N       E                     dE             d eps       ncg     rms          rms(c)
DAV:   1    -0.220144778899E+03   -0.58510E-02   -0.14781E-01  2879   0.716E-01    0.136E-01
DAV:   2    -0.220145510424E+03   -0.73152E-03   -0.99652E-03  4565   0.504E-01    0.133E-01
DAV:   3    -0.220145343953E+03    0.16647E-03   -0.15032E-03  3715   0.489E-01    0.889E-02
DAV:   4    -0.220145331224E+03    0.12729E-04   -0.69992E-04  3502   0.437E-01    0.743E-02
DAV:   5    -0.220145299930E+03    0.31295E-04   -0.78397E-04  3550   0.469E-01    0.521E-02
DAV:   6    -0.220145228739E+03    0.71190E-04   -0.27967E-04  4642   0.257E-01    0.173E-02
DAV:   7    -0.220145227276E+03    0.14635E-05   -0.54402E-05  4647   0.801E-02    0.945E-03
DAV:   8    -0.220145228461E+03   -0.11853E-05   -0.16063E-05  3423   0.346E-02    0.519E-03
DAV:   9    -0.220145229830E+03   -0.13692E-05   -0.44708E-06  2855   0.291E-02    0.398E-03
DAV:  10    -0.220145231324E+03   -0.14940E-05   -0.15813E-06  1743   0.202E-02    0.139E-03
DAV:  11    -0.220145232379E+03   -0.10543E-05   -0.69233E-07  1783   0.879E-03    0.119E-03
DAV:  12    -0.220145232882E+03   -0.50332E-06   -0.36920E-07  1548   0.576E-03
  46 F= -.22014523E+03 E0= -.22009825E+03  d E =-.630418E-02
       N       E                     dE             d eps       ncg     rms          rms(c)
DAV:   1    -0.220146226962E+03   -0.99458E-03   -0.66926E-02  2910   0.481E-01    0.916E-02
DAV:   2    -0.220146551838E+03   -0.32488E-03   -0.44617E-03  4529   0.338E-01    0.893E-02
DAV:   3    -0.220146475914E+03    0.75925E-04   -0.68712E-04  3652   0.332E-01    0.599E-02
DAV:   4    -0.220146471295E+03    0.46185E-05   -0.32932E-04  3510   0.300E-01    0.506E-02
DAV:   5    -0.220146453036E+03    0.18259E-04   -0.35948E-04  3558   0.317E-01    0.345E-02
DAV:   6    -0.220146422343E+03    0.30694E-04   -0.12348E-04  4538   0.170E-01    0.116E-02
DAV:   7    -0.220146421901E+03    0.44185E-06   -0.24723E-05  4423   0.544E-02    0.637E-03
DAV:   8    -0.220146422892E+03   -0.99069E-06   -0.72834E-06  3255   0.235E-02
  47 F= -.22014642E+03 E0= -.22009927E+03  d E =-.749419E-02
       N       E                     dE             d eps       ncg     rms          rms(c)
DAV:   1    -0.220150580401E+03   -0.41585E-02   -0.13611E-01  2870   0.731E-01    0.874E-02
DAV:   2    -0.220150960577E+03   -0.38018E-03   -0.43603E-03  5089   0.401E-01    0.808E-02
DAV:   3    -0.220150931569E+03    0.29008E-04   -0.70500E-04  3322   0.455E-01    0.569E-02
DAV:   4    -0.220150907266E+03    0.24303E-04   -0.30076E-04  3483   0.272E-01    0.330E-02
DAV:   5    -0.220150921059E+03   -0.13793E-04   -0.16827E-04  3706   0.205E-01    0.255E-02
DAV:   6    -0.220150915766E+03    0.52938E-05   -0.70678E-05  3470   0.131E-01    0.794E-03
DAV:   7    -0.220150918191E+03   -0.24258E-05   -0.23207E-05  3683   0.498E-02    0.585E-03
DAV:   8    -0.220150918339E+03   -0.14756E-06   -0.72682E-06  2804   0.292E-02
  48 F= -.22015092E+03 E0= -.22010363E+03  d E =-.449545E-02
       N       E                     dE             d eps       ncg     rms          rms(c)
DAV:   1    -0.220159588719E+03   -0.86705E-02   -0.12244E+00  2850   0.219E+00    0.262E-01
DAV:   2    -0.220163018012E+03   -0.34293E-02   -0.39453E-02  5079   0.117E+00    0.238E-01
DAV:   3    -0.220162739337E+03    0.27868E-03   -0.62179E-03  3330   0.134E+00    0.172E-01
DAV:   4    -0.220162529049E+03    0.21029E-03   -0.26198E-03  3442   0.808E-01    0.981E-02
DAV:   5    -0.220162695092E+03   -0.16604E-03   -0.15077E-03  3650   0.617E-01    0.774E-02
DAV:   6    -0.220162644295E+03    0.50796E-04   -0.65823E-04  3450   0.399E-01    0.233E-02
DAV:   7    -0.220162665806E+03   -0.21511E-04   -0.20929E-04  3964   0.148E-01    0.178E-02
DAV:   8    -0.220162664862E+03    0.94442E-06   -0.66291E-05  3295   0.914E-02    0.715E-03
DAV:   9    -0.220162665509E+03   -0.64739E-06   -0.14236E-05  3076   0.322E-02    0.503E-03
DAV:  10    -0.220162665259E+03    0.25000E-06   -0.36799E-06  2412   0.173E-02
  49 F= -.22016267E+03 E0= -.22011500E+03  d E =-.162424E-01
       N       E                     dE             d eps       ncg     rms          rms(c)
DAV:   1    -0.220166197962E+03   -0.35325E-02   -0.48974E+00  2850   0.439E+00    0.520E-01
DAV:   2    -0.220180042990E+03   -0.13845E-01   -0.15834E-01  5079   0.218E+00    0.455E-01
DAV:   3    -0.220179370209E+03    0.67278E-03   -0.22973E-02  3335   0.251E+00    0.342E-01
DAV:   4    -0.220178490440E+03    0.87977E-03   -0.97021E-03  3394   0.157E+00    0.195E-01
DAV:   5    -0.220178923015E+03   -0.43258E-03   -0.61873E-03  3666   0.126E+00    0.161E-01
DAV:   6    -0.220178613919E+03    0.30910E-03   -0.28223E-03  3567   0.835E-01    0.448E-02
DAV:   7    -0.220178708484E+03   -0.94565E-04   -0.85101E-04  4108   0.288E-01    0.358E-02
DAV:   8    -0.220178703952E+03    0.45326E-05   -0.25219E-04  3311   0.185E-01    0.144E-02
DAV:   9    -0.220178705939E+03   -0.19869E-05   -0.53585E-05  3332   0.591E-02    0.101E-02
DAV:  10    -0.220178704980E+03    0.95816E-06   -0.15184E-05  3239   0.359E-02    0.672E-03
DAV:  11    -0.220178704438E+03    0.54209E-06   -0.68049E-06  2868   0.288E-02
  50 F= -.22017870E+03 E0= -.22013029E+03  d E =-.322815E-01
       N       E                     dE             d eps       ncg     rms          rms(c)
DAV:   1    -0.220130610648E+03    0.48094E-01   -0.19581E+01  2850   0.878E+00    0.103E+00
DAV:   2    -0.220187781835E+03   -0.57171E-01   -0.64897E-01  5026   0.390E+00    0.853E-01
DAV:   3    -0.220185937846E+03    0.18440E-02   -0.80228E-02  3324   0.451E+00    0.668E-01
DAV:   4    -0.220183030762E+03    0.29071E-02   -0.33421E-02  3396   0.295E+00    0.384E-01
DAV:   5    -0.220185015616E+03   -0.19849E-02   -0.26261E-02  3663   0.261E+00    0.344E-01
DAV:   6    -0.220182315776E+03    0.26998E-02   -0.12537E-02  3687   0.179E+00    0.870E-02
DAV:   7    -0.220182726611E+03   -0.41084E-03   -0.34605E-03  4268   0.556E-01    0.709E-02
DAV:   8    -0.220182711958E+03    0.14653E-04   -0.95332E-04  3223   0.366E-01    0.294E-02
DAV:   9    -0.220182715689E+03   -0.37308E-05   -0.19599E-04  3292   0.106E-01    0.202E-02
DAV:  10    -0.220182712270E+03    0.34185E-05   -0.67372E-05  3383   0.773E-02    0.143E-02
DAV:  11    -0.220182710728E+03    0.15420E-05   -0.28261E-05  3276   0.627E-02    0.828E-03
DAV:  12    -0.220182711053E+03   -0.32532E-06   -0.92140E-06  2959   0.424E-02
  51 F= -.22018271E+03 E0= -.22013283E+03  d E =-.362882E-01
       N       E                     dE             d eps       ncg     rms          rms(c)
DAV:   1    -0.220178575628E+03    0.41351E-02   -0.27947E+00  2850   0.331E+00    0.395E-01
DAV:   2    -0.220186409696E+03   -0.78341E-02   -0.88630E-02  4966   0.184E+00    0.367E-01
DAV:   3    -0.220185662422E+03    0.74727E-03   -0.13292E-02  3311   0.200E+00    0.244E-01
DAV:   4    -0.220185409409E+03    0.25301E-03   -0.61792E-03  3519   0.122E+00    0.153E-01
DAV:   5    -0.220185457360E+03   -0.47951E-04   -0.36473E-03  3735   0.937E-01    0.111E-01
DAV:   6    -0.220185398629E+03    0.58731E-04   -0.13821E-03  3690   0.570E-01    0.360E-02
DAV:   7    -0.220185444833E+03   -0.46204E-04   -0.45227E-04  3836   0.230E-01    0.259E-02
DAV:   8    -0.220185445383E+03   -0.54995E-06   -0.15316E-04  3301   0.129E-01    0.103E-02
DAV:   9    -0.220185447030E+03   -0.16468E-05   -0.31225E-05  3292   0.496E-02    0.705E-03
DAV:  10    -0.220185447154E+03   -0.12445E-06   -0.77791E-06  2910   0.276E-02
  52 F= -.22018545E+03 E0= -.22013611E+03  d E =-.390243E-01
       N       E                     dE             d eps       ncg     rms          rms(c)
DAV:   1    -0.220171691751E+03    0.13755E-01   -0.27150E+00  2850   0.323E+00    0.446E-01
DAV:   2    -0.220183700694E+03   -0.12009E-01   -0.13165E-01  4427   0.125E+00    0.360E-01
DAV:   3    -0.220184007659E+03   -0.30697E-03   -0.27908E-02  3607   0.216E+00    0.320E-01
DAV:   4    -0.220181887534E+03    0.21201E-02   -0.12274E-02  3482   0.191E+00    0.210E-01
DAV:   5    -0.220181485354E+03    0.40218E-03   -0.22540E-03  3514   0.881E-01    0.115E-01
DAV:   6    -0.220181501387E+03   -0.16033E-04   -0.14322E-03  3604   0.574E-01    0.592E-02
DAV:   7    -0.220181517323E+03   -0.15936E-04   -0.62325E-04  3694   0.327E-01    0.314E-02
DAV:   8    -0.220181517088E+03    0.23545E-06   -0.15224E-04  3564   0.134E-01    0.161E-02
DAV:   9    -0.220181522191E+03   -0.51030E-05   -0.47358E-05  3563   0.772E-02    0.112E-02
DAV:  10    -0.220181527163E+03   -0.49717E-05   -0.23067E-05  3399   0.603E-02    0.499E-03
DAV:  11    -0.220181530085E+03   -0.29227E-05   -0.61208E-06  2915   0.265E-02    0.288E-03
[...]
 283 F= -.22156359E+03 E0= -.22152125E+03  d E =-.484247E-02
       N       E                     dE             d eps       ncg     rms          rms(c)
DAV:   1    -0.221571378246E+03   -0.77909E-02   -0.19336E+00  2850   0.287E+00    0.193E-01
DAV:   2    -0.221576147474E+03   -0.47692E-02   -0.50929E-02  4298   0.103E+00    0.177E-01
DAV:   3    -0.221576024022E+03    0.12345E-03   -0.36620E-03  3292   0.860E-01    0.120E-01
DAV:   4    -0.221575942948E+03    0.81073E-04   -0.71276E-04  3434   0.382E-01    0.790E-02
DAV:   5    -0.221576023395E+03   -0.80446E-04   -0.67140E-04  3699   0.507E-01    0.724E-02
DAV:   6    -0.221575907220E+03    0.11617E-03   -0.58769E-04  3713   0.475E-01    0.159E-02
DAV:   7    -0.221575914362E+03   -0.71418E-05   -0.16522E-04  4831   0.132E-01    0.133E-02
DAV:   8    -0.221575914815E+03   -0.45286E-06   -0.47062E-05  3292   0.776E-02    0.860E-03
DAV:   9    -0.221575915201E+03   -0.38592E-06   -0.15477E-05  3028   0.317E-02    0.549E-03
DAV:  10    -0.221575915208E+03   -0.73924E-08   -0.33296E-06  2290   0.174E-02
 284 F= -.22157592E+03 E0= -.22153362E+03  d E =-.171703E-01
       N       E                     dE             d eps       ncg     rms          rms(c)
DAV:   1    -0.221572260918E+03    0.36543E-02   -0.77340E+00  2850   0.575E+00    0.390E-01
DAV:   2    -0.221591579789E+03   -0.19319E-01   -0.20685E-01  4311   0.203E+00    0.353E-01
DAV:   3    -0.221591052482E+03    0.52731E-03   -0.14206E-02  3300   0.173E+00    0.242E-01
DAV:   4    -0.221590716324E+03    0.33616E-03   -0.29691E-03  3429   0.838E-01    0.163E-01
DAV:   5    -0.221591203455E+03   -0.48713E-03   -0.35506E-03  3555   0.118E+00    0.163E-01
DAV:   6    -0.221590500473E+03    0.70298E-03   -0.27505E-03  4017   0.102E+00    0.298E-02
DAV:   7    -0.221590559197E+03   -0.58724E-04   -0.78049E-04  4647   0.250E-01    0.298E-02
DAV:   8    -0.221590558645E+03    0.55262E-06   -0.19483E-04  3284   0.164E-01    0.172E-02
DAV:   9    -0.221590558895E+03   -0.25000E-06   -0.53302E-05  3447   0.592E-02    0.106E-02
DAV:  10    -0.221590558785E+03    0.10978E-06   -0.13110E-05  3906   0.337E-02    0.522E-03
DAV:  11    -0.221590559425E+03   -0.64046E-06   -0.51680E-06  2836   0.289E-02
 285 F= -.22159056E+03 E0= -.22154835E+03  d E =-.318145E-01
       N       E                     dE             d eps       ncg     rms          rms(c)
DAV:   1    -0.221502191569E+03    0.88367E-01   -0.30949E+01  2850   0.115E+01    0.802E-01
DAV:   2    -0.221583157793E+03   -0.80966E-01   -0.86927E-01  4316   0.403E+00    0.711E-01
DAV:   3    -0.221580470367E+03    0.26874E-02   -0.52300E-02  3332   0.343E+00    0.491E-01
DAV:   4    -0.221579107644E+03    0.13627E-02   -0.12239E-02  3432   0.183E+00    0.343E-01
DAV:   5    -0.221580988235E+03   -0.18806E-02   -0.15439E-02  3542   0.244E+00    0.329E-01
DAV:   6    -0.221577981416E+03    0.30068E-02   -0.11086E-02  4406   0.203E+00    0.569E-02
DAV:   7    -0.221578264451E+03   -0.28303E-03   -0.33128E-03  4400   0.475E-01    0.631E-02
DAV:   8    -0.221578258999E+03    0.54517E-05   -0.74968E-04  3292   0.321E-01    0.342E-02
DAV:   9    -0.221578252737E+03    0.62622E-05   -0.15902E-04  3508   0.117E-01    0.187E-02
DAV:  10    -0.221578254089E+03   -0.13525E-05   -0.53170E-05  3898   0.788E-02    0.129E-02
DAV:  11    -0.221578255751E+03   -0.16615E-05   -0.25397E-05  3460   0.659E-02    0.586E-03
DAV:  12    -0.221578258215E+03   -0.24638E-05   -0.83015E-06  2938   0.271E-02    0.269E-03
DAV:  13    -0.221578259952E+03   -0.17374E-05   -0.22736E-06  1956   0.150E-02    0.212E-03
DAV:  14    -0.221578261079E+03   -0.11273E-05   -0.93265E-07  1748   0.101E-02    0.138E-03
DAV:  15    -0.221578262931E+03   -0.18521E-05   -0.47369E-07  1744   0.577E-03    0.712E-04
DAV:  16    -0.221578263974E+03   -0.10428E-05   -0.27726E-07  1748   0.312E-03    0.488E-04
DAV:  17    -0.221578264606E+03   -0.63184E-06   -0.16679E-07  1668   0.331E-03
 286 F= -.22157826E+03 E0= -.22153623E+03  d E =-.195197E-01
       N       E                     dE             d eps       ncg     rms          rms(c)
DAV:   1    -0.221553895287E+03    0.24369E-01   -0.16078E+01  2850   0.831E+00    0.569E-01
DAV:   2    -0.221595991848E+03   -0.42097E-01   -0.45096E-01  4346   0.326E+00    0.572E-01
DAV:   3    -0.221593736588E+03    0.22553E-02   -0.29754E-02  3348   0.253E+00    0.348E-01
DAV:   4    -0.221593197614E+03    0.53897E-03   -0.61994E-03  3444   0.102E+00    0.249E-01
DAV:   5    -0.221593931409E+03   -0.73379E-03   -0.71608E-03  3588   0.142E+00    0.194E-01
DAV:   6    -0.221592740053E+03    0.11914E-02   -0.57887E-03  3770   0.144E+00    0.629E-02
DAV:   7    -0.221592811216E+03   -0.71163E-04   -0.17179E-03  4943   0.528E-01    0.487E-02
DAV:   8    -0.221592815457E+03   -0.42417E-05   -0.46789E-04  3292   0.242E-01    0.284E-02
DAV:   9    -0.221592817872E+03   -0.24144E-05   -0.14717E-04  3412   0.946E-02    0.176E-02
DAV:  10    -0.221592817321E+03    0.55094E-06   -0.27723E-05  4068   0.653E-02    0.766E-03
DAV:  11    -0.221592819206E+03   -0.18856E-05   -0.13748E-05  3935   0.378E-02    0.462E-03
DAV:  12    -0.221592820431E+03   -0.12247E-05   -0.43820E-06  2844   0.264E-02    0.311E-03
DAV:  13    -0.221592821538E+03   -0.11064E-05   -0.16446E-06  1692   0.173E-02    0.139E-03
DAV:  14    -0.221592822377E+03   -0.83912E-06   -0.53305E-07  1708   0.647E-03
 287 F= -.22159282E+03 E0= -.22155066E+03  d E =-.340774E-01
       N       E                     dE             d eps       ncg     rms          rms(c)
DAV:   1    -0.221597979857E+03   -0.51583E-02   -0.33646E-01  2850   0.119E+00    0.833E-02
DAV:   2    -0.221598795232E+03   -0.81538E-03   -0.87615E-03  4316   0.435E-01    0.748E-02
DAV:   3    -0.221598773722E+03    0.21511E-04   -0.68446E-04  3279   0.375E-01    0.513E-02
DAV:   4    -0.221598760909E+03    0.12813E-04   -0.14225E-04  3404   0.180E-01    0.339E-02
DAV:   5    -0.221598782860E+03   -0.21951E-04   -0.15072E-04  3490   0.247E-01    0.327E-02
DAV:   6    -0.221598758840E+03    0.24021E-04   -0.11451E-04  3643   0.217E-01    0.685E-03
DAV:   7    -0.221598760318E+03   -0.14782E-05   -0.35234E-05  4516   0.558E-02    0.492E-03
DAV:   8    -0.221598760868E+03   -0.55018E-06   -0.91796E-06  3036   0.308E-02
 288 F= -.22159876E+03 E0= -.22155657E+03  d E =-.593849E-02
       N       E                     dE             d eps       ncg     rms          rms(c)
DAV:   1    -0.221605995362E+03   -0.72350E-02   -0.30278E+00  2850   0.358E+00    0.253E-01
DAV:   2    -0.221613451226E+03   -0.74559E-02   -0.80240E-02  4306   0.129E+00    0.223E-01
DAV:   3    -0.221613257778E+03    0.19345E-03   -0.61000E-03  3266   0.110E+00    0.155E-01
DAV:   4    -0.221613130057E+03    0.12772E-03   -0.11922E-03  3412   0.511E-01    0.101E-01
DAV:   5    -0.221613281249E+03   -0.15119E-03   -0.11234E-03  3539   0.670E-01    0.916E-02
DAV:   6    -0.221613108198E+03    0.17305E-03   -0.98271E-04  3583   0.649E-01    0.239E-02
DAV:   7    -0.221613109631E+03   -0.14331E-05   -0.31087E-04  4846   0.188E-01    0.146E-02
DAV:   8    -0.221613112751E+03   -0.31195E-05   -0.84971E-05  3436   0.885E-02    0.108E-02
DAV:   9    -0.221613113668E+03   -0.91677E-06   -0.24001E-05  3148   0.412E-02    0.748E-03
DAV:  10    -0.221613113522E+03    0.14523E-06   -0.48002E-06  2852   0.247E-02
 289 F= -.22161311E+03 E0= -.22157083E+03  d E =-.202911E-01
       N       E                     dE             d eps       ncg     rms          rms(c)
DAV:   1    -0.221596972102E+03    0.16142E-01   -0.12109E+01  2850   0.718E+00    0.515E-01
DAV:   2    -0.221627570020E+03   -0.30598E-01   -0.33110E-01  4298   0.253E+00    0.447E-01
DAV:   3    -0.221626635059E+03    0.93496E-03   -0.23537E-02  3316   0.213E+00    0.311E-01
DAV:   4    -0.221626102776E+03    0.53228E-03   -0.44042E-03  3492   0.976E-01    0.203E-01
DAV:   5    -0.221626411024E+03   -0.30825E-03   -0.33989E-03  3705   0.110E+00    0.158E-01
DAV:   6    -0.221626073907E+03    0.33712E-03   -0.33907E-03  3564   0.124E+00    0.631E-02
DAV:   7    -0.221626002552E+03    0.71354E-04   -0.12234E-03  5069   0.459E-01    0.293E-02
DAV:   8    -0.221626012348E+03   -0.97956E-05   -0.35759E-04  3700   0.171E-01    0.219E-02
DAV:   9    -0.221626015409E+03   -0.30608E-05   -0.96656E-05  3436   0.851E-02    0.151E-02
DAV:  10    -0.221626014204E+03    0.12045E-05   -0.21095E-05  3612   0.524E-02    0.661E-03
DAV:  11    -0.221626015996E+03   -0.17917E-05   -0.87960E-06  3372   0.300E-02    0.397E-03
DAV:  12    -0.221626016820E+03   -0.82358E-06   -0.32674E-06  2260   0.250E-02
 290 F= -.22162602E+03 E0= -.22158356E+03  d E =-.331944E-01
       N       E                     dE             d eps       ncg     rms          rms(c)
DAV:   1    -0.221631152142E+03   -0.51361E-02   -0.25996E-01  2850   0.104E+00    0.929E-02
DAV:   2    -0.221631946570E+03   -0.79443E-03   -0.86522E-03  4373   0.486E-01    0.954E-02
DAV:   3    -0.221631889157E+03    0.57413E-04   -0.78688E-04  3252   0.393E-01    0.624E-02
DAV:   4    -0.221631872690E+03    0.16467E-04   -0.17973E-04  3428   0.164E-01    0.420E-02
DAV:   5    -0.221631899689E+03   -0.27000E-04   -0.22825E-04  3532   0.268E-01    0.341E-02
DAV:   6    -0.221631860447E+03    0.39242E-04   -0.16443E-04  3684   0.259E-01    0.110E-02
DAV:   7    -0.221631861019E+03   -0.57201E-06   -0.37722E-05  4615   0.823E-02    0.619E-03
DAV:   8    -0.221631861556E+03   -0.53673E-06   -0.12030E-05  2996   0.338E-02    0.419E-03
DAV:   9    -0.221631861743E+03   -0.18720E-06   -0.37996E-06  2332   0.180E-02
 291 F= -.22163186E+03 E0= -.22158946E+03  d E =-.584492E-02
       N       E                     dE             d eps       ncg     rms          rms(c)
DAV:   1    -0.221633096880E+03   -0.12353E-02   -0.23412E+00  2850   0.311E+00    0.279E-01
DAV:   2    -0.221640170482E+03   -0.70736E-02   -0.77262E-02  4312   0.143E+00    0.281E-01
DAV:   3    -0.221639694315E+03    0.47617E-03   -0.70622E-03  3245   0.117E+00    0.187E-01
DAV:   4    -0.221639528599E+03    0.16572E-03   -0.16156E-03  3436   0.500E-01    0.123E-01
DAV:   5    -0.221639757581E+03   -0.22898E-03   -0.19519E-03  3485   0.785E-01    0.992E-02
DAV:   6    -0.221639426542E+03    0.33104E-03   -0.14175E-03  3632   0.761E-01    0.328E-02
DAV:   7    -0.221639430373E+03   -0.38302E-05   -0.32970E-04  4607   0.243E-01    0.182E-02
DAV:   8    -0.221639436344E+03   -0.59714E-05   -0.10629E-04  3380   0.101E-01    0.124E-02
DAV:   9    -0.221639438685E+03   -0.23408E-05   -0.35103E-05  3322   0.545E-02    0.784E-03
DAV:  10    -0.221639440223E+03   -0.15386E-05   -0.64303E-06  3082   0.320E-02    0.420E-03
DAV:  11    -0.221639442266E+03   -0.20427E-05   -0.41706E-06  2556   0.197E-02    0.244E-03
DAV:  12    -0.221639443552E+03   -0.12863E-05   -0.13848E-06  1772   0.137E-02    0.161E-03
DAV:  13    -0.221639444473E+03   -0.92032E-06   -0.48379E-07  1652   0.826E-03
 292 F= -.22163944E+03 E0= -.22159722E+03  d E =-.134277E-01
       N       E                     dE             d eps       ncg     rms          rms(c)
DAV:   1    -0.221644573047E+03   -0.51295E-02   -0.33166E-01  2850   0.117E+00    0.949E-02
DAV:   2    -0.221645411755E+03   -0.83871E-03   -0.91323E-03  4352   0.491E-01    0.887E-02
DAV:   3    -0.221645372545E+03    0.39210E-04   -0.92321E-04  3259   0.432E-01    0.540E-02
DAV:   4    -0.221645364019E+03    0.85256E-05   -0.19108E-04  3404   0.194E-01    0.342E-02
DAV:   5    -0.221645392008E+03   -0.27988E-04   -0.17764E-04  3437   0.237E-01    0.301E-02
DAV:   6    -0.221645365934E+03    0.26074E-04   -0.12095E-04  3606   0.223E-01    0.108E-02
DAV:   7    -0.221645367178E+03   -0.12444E-05   -0.38233E-05  4479   0.811E-02    0.576E-03
DAV:   8    -0.221645367802E+03   -0.62364E-06   -0.12067E-05  2892   0.321E-02    0.379E-03
DAV:   9    -0.221645367945E+03   -0.14342E-06   -0.33378E-06  2292   0.154E-02
 293 F= -.22164537E+03 E0= -.22160318E+03  d E =-.592347E-02
       N       E                     dE             d eps       ncg     rms          rms(c)
DAV:   1    -0.221653528525E+03   -0.81607E-02   -0.29853E+00  2850   0.352E+00    0.283E-01
DAV:   2    -0.221661036981E+03   -0.75085E-02   -0.81897E-02  4325   0.140E+00    0.255E-01
DAV:   3    -0.221660755997E+03    0.28098E-03   -0.81018E-03  3243   0.125E+00    0.163E-01
DAV:   4    -0.221660667211E+03    0.88786E-04   -0.16138E-03  3404   0.565E-01    0.101E-01
DAV:   5    -0.221660906102E+03   -0.23889E-03   -0.14324E-03  3453   0.666E-01    0.871E-02
DAV:   6    -0.221660698387E+03    0.20772E-03   -0.10804E-03  3585   0.659E-01    0.333E-02
DAV:   7    -0.221660701685E+03   -0.32982E-05   -0.32253E-04  4612   0.249E-01    0.169E-02
DAV:   8    -0.221660706204E+03   -0.45192E-05   -0.10373E-04  3348   0.969E-02    0.112E-02
DAV:   9    -0.221660706883E+03   -0.67923E-06   -0.30295E-05  3196   0.465E-02    0.769E-03
DAV:  10    -0.221660706268E+03    0.61560E-06   -0.63941E-06  2972   0.279E-02
 294 F= -.22166071E+03 E0= -.22161863E+03  d E =-.212618E-01
       N       E                     dE             d eps       ncg     rms          rms(c)
DAV:   1    -0.221651399862E+03    0.93070E-02   -0.11940E+01  2850   0.706E+00    0.561E-01
DAV:   2    -0.221681731598E+03   -0.30332E-01   -0.33192E-01  4298   0.259E+00    0.483E-01
DAV:   3    -0.221680981653E+03    0.74994E-03   -0.30349E-02  3258   0.234E+00    0.331E-01
DAV:   4    -0.221680498323E+03    0.48333E-03   -0.59651E-03  3436   0.110E+00    0.201E-01
DAV:   5    -0.221681224941E+03   -0.72662E-03   -0.43625E-03  3541   0.110E+00    0.149E-01
DAV:   6    -0.221680736530E+03    0.48841E-03   -0.39551E-03  3561   0.124E+00    0.761E-02
DAV:   7    -0.221680673624E+03    0.62906E-04   -0.11839E-03  4676   0.556E-01    0.336E-02
DAV:   8    -0.221680688295E+03   -0.14671E-04   -0.38285E-04  3780   0.192E-01    0.215E-02
DAV:   9    -0.221680690339E+03   -0.20436E-05   -0.11563E-04  3324   0.936E-02    0.148E-02
DAV:  10    -0.221680688904E+03    0.14346E-05   -0.27885E-05  3452   0.576E-02    0.785E-03
DAV:  11    -0.221680689330E+03   -0.42596E-06   -0.87535E-06  3156   0.365E-02
 295 F= -.22168069E+03 E0= -.22163879E+03  d E =-.412449E-01
       N       E                     dE             d eps       ncg     rms          rms(c)
DAV:   1    -0.221555423170E+03    0.12527E+00   -0.47783E+01  2850   0.142E+01    0.114E+00
DAV:   2    -0.221684655359E+03   -0.12923E+00   -0.14127E+00  4268   0.487E+00    0.935E-01
DAV:   3    -0.221681518496E+03    0.31369E-02   -0.10384E-01  3271   0.429E+00    0.659E-01
DAV:   4    -0.221679398126E+03    0.21204E-02   -0.23255E-02  3476   0.218E+00    0.416E-01
DAV:   5    -0.221679806337E+03   -0.40821E-03   -0.12009E-02  4556   0.130E+00    0.209E-01
DAV:   6    -0.221680041475E+03   -0.23514E-03   -0.88341E-03  3549   0.170E+00    0.165E-01
DAV:   7    -0.221679492734E+03    0.54874E-03   -0.42968E-03  3491   0.130E+00    0.778E-02
DAV:   8    -0.221679447908E+03    0.44826E-04   -0.11495E-03  4673   0.504E-01    0.359E-02
DAV:   9    -0.221679459501E+03   -0.11593E-04   -0.39129E-04  3324   0.179E-01    0.272E-02
DAV:  10    -0.221679458459E+03    0.10415E-05   -0.11177E-04  3348   0.113E-01    0.151E-02
DAV:  11    -0.221679460593E+03   -0.21341E-05   -0.41329E-05  3484   0.758E-02    0.899E-03
DAV:  12    -0.221679461343E+03   -0.74966E-06   -0.14847E-05  3092   0.521E-02    0.371E-03
DAV:  13    -0.221679462164E+03   -0.82108E-06   -0.34023E-06  2276   0.175E-02
 296 F= -.22167946E+03 E0= -.22163778E+03  d E =-.400177E-01
       N       E                     dE             d eps       ncg     rms          rms(c)
DAV:   1    -0.221654708253E+03    0.24753E-01   -0.12972E+01  2850   0.738E+00    0.614E-01
DAV:   2    -0.221690194503E+03   -0.35486E-01   -0.38421E-01  4391   0.360E+00    0.620E-01
DAV:   3    -0.221687048726E+03    0.31458E-02   -0.35948E-02  3333   0.307E+00    0.332E-01
DAV:   4    -0.221686852824E+03    0.19590E-03   -0.83695E-03  3418   0.140E+00    0.232E-01
DAV:   5    -0.221687612226E+03   -0.75940E-03   -0.74326E-03  3499   0.158E+00    0.184E-01
DAV:   6    -0.221686777381E+03    0.83484E-03   -0.39078E-03  3897   0.129E+00    0.662E-02
DAV:   7    -0.221686867624E+03   -0.90243E-04   -0.17246E-03  4479   0.478E-01    0.412E-02
DAV:   8    -0.221686888122E+03   -0.20497E-04   -0.51610E-04  3388   0.206E-01    0.263E-02
DAV:   9    -0.221686890261E+03   -0.21390E-05   -0.13230E-04  3375   0.110E-01    0.174E-02
DAV:  10    -0.221686887615E+03    0.26459E-05   -0.25190E-05  3564   0.652E-02    0.734E-03
DAV:  11    -0.221686888636E+03   -0.10217E-05   -0.13496E-05  4060   0.314E-02    0.442E-03
DAV:  12    -0.221686888970E+03   -0.33330E-06   -0.35075E-06  2508   0.258E-02
 297 F= -.22168689E+03 E0= -.22164513E+03  d E =-.474445E-01
       N       E                     dE             d eps       ncg     rms          rms(c)
DAV:   1    -0.221694083116E+03   -0.71945E-02   -0.17241E+00  2850   0.268E+00    0.223E-01
DAV:   2    -0.221698956122E+03   -0.48730E-02   -0.52603E-02  4290   0.750E-01    0.175E-01
DAV:   3    -0.221698765281E+03    0.19084E-03   -0.21139E-03  3413   0.564E-01    0.129E-01
DAV:   4    -0.221698705101E+03    0.60180E-04   -0.88177E-04  3535   0.541E-01    0.936E-02
DAV:   5    -0.221698716980E+03   -0.11879E-04   -0.70965E-04  4029   0.512E-01    0.478E-02
DAV:   6    -0.221698659162E+03    0.57818E-04   -0.55361E-04  4416   0.458E-01    0.289E-02
DAV:   7    -0.221698644901E+03    0.14262E-04   -0.14393E-04  4781   0.193E-01    0.130E-02
DAV:   8    -0.221698646733E+03   -0.18320E-05   -0.40767E-05  3676   0.621E-02    0.893E-03
DAV:   9    -0.221698647456E+03   -0.72317E-06   -0.14048E-05  3476   0.379E-02    0.479E-03
DAV:  10    -0.221698647937E+03   -0.48149E-06   -0.25220E-06  1956   0.227E-02
 298 F= -.22169865E+03 E0= -.22165683E+03  d E =-.117590E-01
       N       E                     dE             d eps       ncg     rms          rms(c)
DAV:   1    -0.221695365398E+03    0.32821E-02   -0.32866E+00  2850   0.370E+00    0.308E-01
DAV:   2    -0.221704688709E+03   -0.93233E-02   -0.10069E-01  4293   0.104E+00    0.241E-01
DAV:   3    -0.221704316579E+03    0.37213E-03   -0.40074E-03  3402   0.776E-01    0.178E-01
DAV:   4    -0.221704208056E+03    0.10852E-03   -0.16742E-03  3540   0.743E-01    0.129E-01
DAV:   5    -0.221704230536E+03   -0.22480E-04   -0.13024E-03  4082   0.696E-01    0.649E-02
DAV:   6    -0.221704134147E+03    0.96389E-04   -0.10228E-03  4323   0.632E-01    0.410E-02
DAV:   7    -0.221704103954E+03    0.30193E-04   -0.27761E-04  4747   0.269E-01    0.176E-02
DAV:   8    -0.221704107959E+03   -0.40054E-05   -0.79023E-05  3788   0.848E-02    0.125E-02
DAV:   9    -0.221704109439E+03   -0.14801E-05   -0.27088E-05  3476   0.527E-02    0.661E-03
DAV:  10    -0.221704110618E+03   -0.11791E-05   -0.57173E-06  2980   0.307E-02    0.365E-03
DAV:  11    -0.221704111469E+03   -0.85105E-06   -0.25766E-06  2052   0.180E-02
 299 F= -.22170411E+03 E0= -.22166220E+03  d E =-.172225E-01
       N       E                     dE             d eps       ncg     rms          rms(c)
DAV:   1    -0.221708854856E+03   -0.47442E-02   -0.25461E-01  2850   0.103E+00    0.697E-02
DAV:   2    -0.221709445907E+03   -0.59105E-03   -0.62912E-03  4287   0.299E-01    0.603E-02
DAV:   3    -0.221709433238E+03    0.12669E-04   -0.37476E-04  3253   0.228E-01    0.421E-02
DAV:   4    -0.221709425199E+03    0.80392E-05   -0.77006E-05  3476   0.141E-01    0.288E-02
DAV:   5    -0.221709426728E+03   -0.15288E-05   -0.45591E-05  5012   0.919E-02    0.131E-02
DAV:   6    -0.221709426899E+03   -0.17113E-06   -0.26162E-05  4132   0.745E-02    0.720E-03
DAV:   7    -0.221709426483E+03    0.41566E-06   -0.12983E-05  3186   0.653E-02    0.541E-03
DAV:   8    -0.221709426047E+03    0.43580E-06   -0.26102E-06  1876   0.301E-02
 300 F= -.22170943E+03 E0= -.22166754E+03  d E =-.531458E-02
