Cu(100) coverage-dependent binding (RPBE
            1
     7.668573    0.000000    0.000000
     0.000000    7.668573    0.000000
     0.000000    0.000000   29.422500
   Cu   C    O    C    O    C    O    C    O    C    O    C    O    C    O    C    O 
    36     1     1     1     1     1     1     1     1     1     1     1     1     1     1     1     1
Direct configuration=     1
   0.16666667  0.16666667  0.40785113
   0.50000000  0.16666667  0.40785113
   0.83333333  0.16666667  0.40785113
   0.16666667  0.50000000  0.40785113
   0.50000000  0.50000000  0.40785113
   0.83333333  0.50000000  0.40785113
   0.16666667  0.83333333  0.40785113
   0.50000000  0.83333333  0.40785113
   0.83333333  0.83333333  0.40785113
   0.00000000  0.00000000  0.46928371
   0.33333333  0.00000000  0.46928371
   0.66666667  0.00000000  0.46928371
   0.00000000  0.33333333  0.46928371
   0.33333333  0.33333333  0.46928371
   0.66666667  0.33333333  0.46928371
   0.00000000  0.66666667  0.46928371
   0.33333333  0.66666667  0.46928371
   0.66666667  0.66666667  0.46928371
   0.16666667  0.16666667  0.53071629
   0.50000000  0.16666667  0.53071629
   0.83333333  0.16666667  0.53071629
   0.16666667  0.50000000  0.53071629
   0.50000000  0.50000000  0.53071629
   0.83333333  0.50000000  0.53071629
   0.16666667  0.83333333  0.53071629
   0.50000000  0.83333333  0.53071629
   0.83333333  0.83333333  0.53071629
   0.00000000  0.00000000  0.59214887
   0.33333333  0.00000000  0.59214887
   0.66666667  0.00000000  0.59214887
   0.00000000  0.33333333  0.59214887
   0.33333333  0.33333333  0.59214887
   0.66666667  0.33333333  0.59214887
   0.00000000  0.66666667  0.59214887
   0.33333333  0.66666667  0.59214887
   0.66666667  0.66666667  0.59214887
   0.16666667  0.16666667  0.64313026
   0.16666667  0.16666667  0.68255587
   0.16666667  0.50000000  0.64313026
   0.16666667  0.50000000  0.68255587
   0.16666667  0.83333333  0.64313026
   0.16666667  0.83333333  0.68255587
   0.50000000  0.16666667  0.64313026
   0.50000000  0.16666667  0.68255587
   0.50000000  0.50000000  0.64313026
   0.50000000  0.50000000  0.68255587
   0.50000000  0.83333333  0.64313026
   0.50000000  0.83333333  0.68255587
   0.83333333  0.16666667  0.64313026
   0.83333333  0.16666667  0.68255587
   0.83333333  0.50000000  0.64313026
   0.83333333  0.50000000  0.68255587
Direct configuration=     2
   0.16666667  0.16666667  0.40785113
   0.50000000  0.16666667  0.40785113
   0.83333333  0.16666667  0.40785113
   0.16666667  0.50000000  0.40785113
   0.50000000  0.50000000  0.40785113
   0.83333333  0.50000000  0.40785113
   0.16666667  0.83333333  0.40785113
   0.50000000  0.83333333  0.40785113
   0.83333333  0.83333333  0.40785113
   0.00000000  0.00000000  0.46928371
   0.33333333  0.00000000  0.46928371
   0.66666667  0.00000000  0.46928371
   0.00000000  0.33333333  0.46928371
   0.33333333  0.33333333  0.46928371
   0.66666667  0.33333333  0.46928371
   0.00000000  0.66666667  0.46928371
   0.33333333  0.66666667  0.46928371
   0.66666667  0.66666667  0.46928371
   0.16671502  0.16671502  0.53030603
   0.49997815  0.16672160  0.53030873
   0.83331128  0.16690416  0.53037867
   0.16672160  0.49997816  0.53030873
   0.49997817  0.49997818  0.53031784
   0.83330472  0.49978886  0.53038138
   0.16690417  0.83331127  0.53037867
   0.49978885  0.83330471  0.53038137
   0.83331140  0.83331139  0.53097537
   0.99946978  0.99946977  0.59339073
   0.33327351  0.00018886  0.59336850
   0.66726042  0.99947113  0.59339111
   0.00018887  0.33327352  0.59336850
   0.33330344  0.33330346  0.59345575
   0.66651219  0.33330381  0.59336703
   0.99947113  0.66726041  0.59339111
   0.33330380  0.66651219  0.59336703
   0.66723223  0.66723223  0.59339063
   0.16713360  0.16713361  0.64056942
   0.16652232  0.16652232  0.68476905
   0.16712433  0.49950712  0.64056482
   0.16653943  0.50008524  0.68476445
   0.16183474  0.83336377  0.64025179
   0.16331278  0.83339738  0.68495989
   0.49950711  0.16712433  0.64056482
   0.50008525  0.16653944  0.68476445
   0.49950721  0.49950723  0.64055170
   0.50008523  0.50008523  0.68479716
   0.50480325  0.83337287  0.64024729
   0.50330914  0.83337993  0.68495514
   0.83336379  0.16183475  0.64025179
   0.83339739  0.16331278  0.68495990
   0.83337289  0.50480327  0.64024730
   0.83337994  0.50330915  0.68495513
Direct configuration=     3
   0.16666667  0.16666667  0.40785113
   0.50000000  0.16666667  0.40785113
   0.83333333  0.16666667  0.40785113
   0.16666667  0.50000000  0.40785113
   0.50000000  0.50000000  0.40785113
   0.83333333  0.50000000  0.40785113
   0.16666667  0.83333333  0.40785113
   0.50000000  0.83333333  0.40785113
   0.83333333  0.83333333  0.40785113
   0.00000000  0.00000000  0.46928371
   0.33333333  0.00000000  0.46928371
   0.66666667  0.00000000  0.46928371
   0.00000000  0.33333333  0.46928371
   0.33333333  0.33333333  0.46928371
   0.66666667  0.33333333  0.46928371
   0.00000000  0.66666667  0.46928371
   0.33333333  0.66666667  0.46928371
   0.66666667  0.66666667  0.46928371
   0.16667342  0.16667342  0.53065901
   0.49999695  0.16667434  0.53065939
   0.83333025  0.16669983  0.53066915
   0.16667434  0.49999695  0.53065939
   0.49999695  0.49999695  0.53066066
   0.83332934  0.49997052  0.53066953
   0.16669983  0.83333025  0.53066915
   0.49997052  0.83332934  0.53066953
   0.83333027  0.83333027  0.53075246
   0.99992597  0.99992597  0.59232225
   0.33332498  0.00002637  0.59231915
   0.66674957  0.99992616  0.59232231
   0.00002637  0.33332498  0.59231915
   0.33332916  0.33332916  0.59233133
   0.66664510  0.33332921  0.59231894
   0.99992616  0.66674956  0.59232231
   0.33332921  0.66664510  0.59231894
   0.66674563  0.66674563  0.59232224
   0.16673186  0.16673186  0.64277272
   0.16664651  0.16664651  0.68286487
   0.16673056  0.49993118  0.64277207
   0.16664890  0.50001190  0.68286423
   0.16599204  0.83333758  0.64272837
   0.16619840  0.83334228  0.68289151
   0.49993118  0.16673057  0.64277207
   0.50001190  0.16664890  0.68286423
   0.49993120  0.49993120  0.64277024
   0.50001190  0.50001190  0.68286879
   0.50067062  0.83333885  0.64272774
   0.50046202  0.83333984  0.68289085
   0.83333759  0.16599204  0.64272837
   0.83334228  0.16619840  0.68289152
   0.83333886  0.50067063  0.64272774
   0.83333984  0.50046202  0.68289085
Direct configuration=     4
   0.16666667  0.16666667  0.40785113
   0.50000000  0.16666667  0.40785113
   0.83333333  0.16666667  0.40785113
   0.16666667  0.50000000  0.40785113
   0.50000000  0.50000000  0.40785113
   0.83333333  0.50000000  0.40785113
   0.16666667  0.83333333  0.40785113
   0.50000000  0.83333333  0.40785113
   0.83333333  0.83333333  0.40785113
   0.00000000  0.00000000  0.46928371
   0.33333333  0.00000000  0.46928371
   0.66666667  0.00000000  0.46928371
   0.00000000  0.33333333  0.46928371
   0.33333333  0.33333333  0.46928371
   0.66666667  0.33333333  0.46928371
   0.00000000  0.66666667  0.46928371
   0.33333333  0.66666667  0.46928371
   0.66666667  0.66666667  0.46928371
   0.16673160  0.16673160  0.53024705
   0.49996765  0.16673817  0.53024963
   0.83330785  0.16693613  0.53033434
   0.16673817  0.49996765  0.53024963
   0.49996765  0.49996765  0.53026042
   0.83330028  0.49976219  0.53033744
   0.16693613  0.83330785  0.53033434
   0.49976218  0.83330027  0.53033744
   0.83330777  0.83330777  0.53103355
   0.99941859  0.99941859  0.59372264
   0.33325985  0.00022891  0.59368453
   0.66732311  0.99942120  0.59371861
   0.00022892  0.33325985  0.59368453
   0.33329741  0.33329741  0.59378645
   0.66648054  0.33329798  0.59368213
   0.99942120  0.66732311  0.59371861
   0.33329798  0.66648054  0.59368213
   0.66728924  0.66728924  0.59371727
   0.16718629  0.16718629  0.64254831
   0.16650561  0.16650561  0.68263978
   0.16717820  0.49944484  0.64254836
   0.16650798  0.50009298  0.68264533
   0.16069397  0.83337547  0.64235349
   0.16257510  0.83341467  0.68265461
   0.49944484  0.16717820  0.64254836
   0.50009298  0.16650798  0.68264533
   0.49943741  0.49943741  0.64255814
   0.50009297  0.50009296  0.68263487
   0.50593852  0.83338357  0.64235368
   0.50402669  0.83340074  0.68265459
   0.83337548  0.16069398  0.64235349
   0.83341468  0.16257510  0.68265461
   0.83338358  0.50593852  0.64235367
   0.83340074  0.50402670  0.68265460
Direct configuration=     5
   0.16666667  0.16666667  0.40785113
   0.50000000  0.16666667  0.40785113
   0.83333333  0.16666667  0.40785113
   0.16666667  0.50000000  0.40785113
   0.50000000  0.50000000  0.40785113
   0.83333333  0.50000000  0.40785113
   0.16666667  0.83333333  0.40785113
   0.50000000  0.83333333  0.40785113
   0.83333333  0.83333333  0.40785113
   0.00000000  0.00000000  0.46928371
   0.33333333  0.00000000  0.46928371
   0.66666667  0.00000000  0.46928371
   0.00000000  0.33333333  0.46928371
   0.33333333  0.33333333  0.46928371
   0.66666667  0.33333333  0.46928371
   0.00000000  0.66666667  0.46928371
   0.33333333  0.66666667  0.46928371
   0.66666667  0.66666667  0.46928371
   0.16687294  0.16687294  0.52924640
   0.49989649  0.16689323  0.52925435
   0.83325344  0.16751010  0.52952110
   0.16689322  0.49989649  0.52925435
   0.49989646  0.49989647  0.52928823
   0.83322968  0.49925614  0.52953079
   0.16751010  0.83325343  0.52952110
   0.49925614  0.83322967  0.52953079
   0.83325312  0.83325311  0.53171632
   0.99818617  0.99818617  0.59712417
   0.33310165  0.00072090  0.59700103
   0.66871626  0.99819466  0.59711023
   0.00072091  0.33310165  0.59700103
   0.33322028  0.33322029  0.59732092
   0.66608084  0.33322213  0.59699330
   0.99819467  0.66871625  0.59711023
   0.33322212  0.66608083  0.59699330
   0.66860966  0.66860966  0.59710578
   0.16829008  0.16829010  0.64200323
   0.16616334  0.16616334  0.68209303
   0.16826550  0.49826351  0.64200495
   0.16616568  0.50028991  0.68211362
   0.14782498  0.83346751  0.64144291
   0.15377411  0.83359053  0.68207917
   0.49826351  0.16826551  0.64200495
   0.50028991  0.16616569  0.68211362
   0.49823800  0.49823801  0.64204295
   0.50028987  0.50028987  0.68206666
   0.51873421  0.83349220  0.64144508
   0.51268528  0.83354865  0.68208072
   0.83346753  0.14782500  0.64144292
   0.83359053  0.15377411  0.68207918
   0.83349222  0.51873422  0.64144506
   0.83354866  0.51268529  0.68208074
Direct configuration=     6
   0.16666667  0.16666667  0.40785113
   0.50000000  0.16666667  0.40785113
   0.83333333  0.16666667  0.40785113
   0.16666667  0.50000000  0.40785113
   0.50000000  0.50000000  0.40785113
   0.83333333  0.50000000  0.40785113
   0.16666667  0.83333333  0.40785113
   0.50000000  0.83333333  0.40785113
   0.83333333  0.83333333  0.40785113
   0.00000000  0.00000000  0.46928371
   0.33333333  0.00000000  0.46928371
   0.66666667  0.00000000  0.46928371
   0.00000000  0.33333333  0.46928371
   0.33333333  0.33333333  0.46928371
   0.66666667  0.33333333  0.46928371
   0.00000000  0.66666667  0.46928371
   0.33333333  0.66666667  0.46928371
   0.66666667  0.66666667  0.46928371
   0.16684912  0.16684912  0.52965453
   0.49993351  0.16687424  0.52966490
   0.83325095  0.16762189  0.52997770
   0.16687424  0.49993351  0.52966490
   0.49993099  0.49993100  0.52968964
   0.83320989  0.49913174  0.52998987
   0.16762189  0.83325094  0.52997770
   0.49913173  0.83320988  0.52998987
   0.83325515  0.83325514  0.53232908
   0.99814881  0.99814881  0.59819128
   0.33311004  0.00060032  0.59791278
   0.66870044  0.99815844  0.59819125
   0.00060033  0.33311004  0.59791278
   0.33320849  0.33320850  0.59825375
   0.66622580  0.33321031  0.59791366
   0.99815845  0.66870043  0.59819125
   0.33321030  0.66622578  0.59791366
   0.66861739  0.66861739  0.59819404
   0.16841251  0.16841252  0.64192133
   0.16621407  0.16621407  0.68188175
   0.16837298  0.49814211  0.64197743
   0.16621492  0.50019639  0.68183578
   0.14098127  0.83347878  0.64290943
   0.14996208  0.83361857  0.68010401
   0.49814211  0.16837298  0.64197740
   0.50019639  0.16621492  0.68183581
   0.49809683  0.49809684  0.64171500
   0.50024834  0.50024834  0.68210476
   0.52557476  0.83350707  0.64290928
   0.51648548  0.83357491  0.68010655
   0.83347880  0.14098128  0.64290944
   0.83361858  0.14996209  0.68010401
   0.83350709  0.52557475  0.64290938
   0.83357491  0.51648551  0.68010644
Direct configuration=     7
   0.16666667  0.16666667  0.40785113
   0.50000000  0.16666667  0.40785113
   0.83333333  0.16666667  0.40785113
   0.16666667  0.50000000  0.40785113
   0.50000000  0.50000000  0.40785113
   0.83333333  0.50000000  0.40785113
   0.16666667  0.83333333  0.40785113
   0.50000000  0.83333333  0.40785113
   0.83333333  0.83333333  0.40785113
   0.00000000  0.00000000  0.46928371
   0.33333333  0.00000000  0.46928371
   0.66666667  0.00000000  0.46928371
   0.00000000  0.33333333  0.46928371
   0.33333333  0.33333333  0.46928371
   0.66666667  0.33333333  0.46928371
   0.00000000  0.66666667  0.46928371
   0.33333333  0.66666667  0.46928371
   0.66666667  0.66666667  0.46928371
   0.16686821  0.16686821  0.52932746
   0.49990384  0.16688945  0.52933589
   0.83325294  0.16753230  0.52961178
   0.16688945  0.49990385  0.52933589
   0.49990332  0.49990333  0.52936795
   0.83322575  0.49923144  0.52962197
   0.16753230  0.83325293  0.52961178
   0.49923143  0.83322574  0.52962197
   0.83325352  0.83325352  0.53183802
   0.99817875  0.99817875  0.59733611
   0.33310331  0.00069695  0.59718212
   0.66871311  0.99818747  0.59732493
   0.00069696  0.33310332  0.59718212
   0.33321794  0.33321795  0.59750619
   0.66610963  0.33321978  0.59717610
   0.99818747  0.66871311  0.59732493
   0.33321978  0.66610962  0.59717610
   0.66861120  0.66861120  0.59732192
   0.16831440  0.16831441  0.64198696
   0.16617342  0.16617342  0.68205107
   0.16828685  0.49823940  0.64199948
   0.16617546  0.50027134  0.68205844
   0.14646574  0.83346975  0.64173418
   0.15301700  0.83359610  0.68168688
   0.49823940  0.16828685  0.64199948
   0.50027134  0.16617547  0.68205844
   0.49820996  0.49820997  0.64197782
   0.50028163  0.50028162  0.68207422
   0.52009282  0.83349515  0.64173589
   0.51344004  0.83355387  0.68168863
   0.83346977  0.14646576  0.64173418
   0.83359610  0.15301700  0.68168689
   0.83349517  0.52009283  0.64173589
   0.83355387  0.51344005  0.68168862
Direct configuration=     8
   0.16666667  0.16666667  0.40785113
   0.50000000  0.16666667  0.40785113
   0.83333333  0.16666667  0.40785113
   0.16666667  0.50000000  0.40785113
   0.50000000  0.50000000  0.40785113
   0.83333333  0.50000000  0.40785113
   0.16666667  0.83333333  0.40785113
   0.50000000  0.83333333  0.40785113
   0.83333333  0.83333333  0.40785113
   0.00000000  0.00000000  0.46928371
   0.33333333  0.00000000  0.46928371
   0.66666667  0.00000000  0.46928371
   0.00000000  0.33333333  0.46928371
   0.33333333  0.33333333  0.46928371
   0.66666667  0.33333333  0.46928371
   0.00000000  0.66666667  0.46928371
   0.33333333  0.66666667  0.46928371
   0.66666667  0.66666667  0.46928371
   0.16680068  0.16680068  0.53006668
   0.49997277  0.16682639  0.53007580
   0.83326223  0.16754927  0.53037517
   0.16682639  0.49997277  0.53007580
   0.49996996  0.49996997  0.53009268
   0.83321819  0.49918395  0.53038752
   0.16754927  0.83326223  0.53037517
   0.49918395  0.83321819  0.53038752
   0.83326839  0.83326839  0.53244611
   0.99843138  0.99843138  0.59781588
   0.33314963  0.00053808  0.59748671
   0.66835496  0.99843828  0.59782461
   0.00053808  0.33314963  0.59748671
   0.33322907  0.33322908  0.59782579
   0.66627681  0.33322974  0.59749546
   0.99843829  0.66835495  0.59782461
   0.33322974  0.66627680  0.59749546
   0.66829422  0.66829422  0.59783541
   0.16821713  0.16821714  0.64178524
   0.16628999  0.16628999  0.68214124
   0.16817492  0.49836020  0.64179821
   0.16628825  0.50014201  0.68213256
   0.14054605  0.83345462  0.64171942
   0.15066707  0.83357579  0.68153550
   0.49836020  0.16817493  0.64179820
   0.50014201  0.16628825  0.68213257
   0.49833205  0.49833206  0.64176515
   0.50018867  0.50018867  0.68216900
   0.52602427  0.83348373  0.64172648
   0.51579837  0.83355053  0.68152378
   0.83345463  0.14054606  0.64171942
   0.83357580  0.15066708  0.68153550
   0.83348375  0.52602428  0.64172650
   0.83355054  0.51579838  0.68152376
Direct configuration=     9
   0.16666667  0.16666667  0.40785113
   0.50000000  0.16666667  0.40785113
   0.83333333  0.16666667  0.40785113
   0.16666667  0.50000000  0.40785113
   0.50000000  0.50000000  0.40785113
   0.83333333  0.50000000  0.40785113
   0.16666667  0.83333333  0.40785113
   0.50000000  0.83333333  0.40785113
   0.83333333  0.83333333  0.40785113
   0.00000000  0.00000000  0.46928371
   0.33333333  0.00000000  0.46928371
   0.66666667  0.00000000  0.46928371
   0.00000000  0.33333333  0.46928371
   0.33333333  0.33333333  0.46928371
   0.66666667  0.33333333  0.46928371
   0.00000000  0.66666667  0.46928371
   0.33333333  0.66666667  0.46928371
   0.66666667  0.66666667  0.46928371
   0.16666710  0.16666710  0.53152907
   0.50010913  0.16670164  0.53153954
   0.83328061  0.16758283  0.53188536
   0.16670164  0.50010913  0.53153954
   0.50010180  0.50010180  0.53152640
   0.83320324  0.49909001  0.53190199
   0.16758283  0.83328062  0.53188536
   0.49909001  0.83320324  0.53190199
   0.83329782  0.83329781  0.53364907
   0.99893116  0.99893116  0.59876501
   0.33324125  0.00022378  0.59808928
   0.66764642  0.99893447  0.59881310
   0.00022377  0.33324125  0.59808928
   0.33325111  0.33325110  0.59845805
   0.66660754  0.33324944  0.59812727
   0.99893447  0.66764643  0.59881310
   0.33324945  0.66660754  0.59812727
   0.66766716  0.66766715  0.59885125
   0.16802472  0.16802472  0.64138617
   0.16652060  0.16652059  0.68231964
   0.16795351  0.49859918  0.64140003
   0.16651138  0.49988616  0.68227921
   0.12883522  0.83342470  0.64169021
   0.14601827  0.83353563  0.68123602
   0.49859918  0.16795351  0.64140003
   0.49988617  0.16651138  0.68227921
   0.49857357  0.49857358  0.64134444
   0.50000478  0.50000478  0.68235650
   0.53775836  0.83346114  0.64170785
   0.52046380  0.83354394  0.68119768
   0.83342470  0.12883522  0.64169021
   0.83353563  0.14601827  0.68123602
   0.83346114  0.53775835  0.64170791
   0.83354394  0.52046382  0.68119762
Direct configuration=    10
   0.16666667  0.16666667  0.40785113
   0.50000000  0.16666667  0.40785113
   0.83333333  0.16666667  0.40785113
   0.16666667  0.50000000  0.40785113
   0.50000000  0.50000000  0.40785113
   0.83333333  0.50000000  0.40785113
   0.16666667  0.83333333  0.40785113
   0.50000000  0.83333333  0.40785113
   0.83333333  0.83333333  0.40785113
   0.00000000  0.00000000  0.46928371
   0.33333333  0.00000000  0.46928371
   0.66666667  0.00000000  0.46928371
   0.00000000  0.33333333  0.46928371
   0.33333333  0.33333333  0.46928371
   0.66666667  0.33333333  0.46928371
   0.00000000  0.66666667  0.46928371
   0.33333333  0.66666667  0.46928371
   0.66666667  0.66666667  0.46928371
   0.16665131  0.16665130  0.53170629
   0.50012528  0.16668641  0.53171684
   0.83328295  0.16758238  0.53207269
   0.16668641  0.50012528  0.53171684
   0.50011725  0.50011725  0.53170025
   0.83320223  0.49908296  0.53208971
   0.16758238  0.83328295  0.53207269
   0.49908296  0.83320223  0.53208971
   0.83330056  0.83330056  0.53379295
   0.99901363  0.99901363  0.59886923
   0.33325047  0.00020057  0.59815483
   0.66753900  0.99901844  0.59892139
   0.00020057  0.33325047  0.59815483
   0.33325424  0.33325423  0.59853403
   0.66663289  0.33325131  0.59819662
   0.99901843  0.66753900  0.59892139
   0.33325132  0.66663289  0.59819662
   0.66756750  0.66756749  0.59896277
   0.16798521  0.16798521  0.64143900
   0.16655307  0.16655307  0.68223946
   0.16791161  0.49864458  0.64144687
   0.16654245  0.49985225  0.68220199
   0.12732962  0.83342080  0.64165231
   0.14545438  0.83353020  0.68126412
   0.49864459  0.16791161  0.64144687
   0.49985225  0.16654244  0.68220199
   0.49861968  0.49861968  0.64140326
   0.49997730  0.49997730  0.68226883
   0.53927102  0.83345893  0.64166420
   0.52102399  0.83354233  0.68123054
   0.83342080  0.12732963  0.64165232
   0.83353021  0.14545438  0.68126412
   0.83345893  0.53927102  0.64166425
   0.83354233  0.52102400  0.68123049
Direct configuration=    11
   0.16666667  0.16666667  0.40785113
   0.50000000  0.16666667  0.40785113
   0.83333333  0.16666667  0.40785113
   0.16666667  0.50000000  0.40785113
   0.50000000  0.50000000  0.40785113
   0.83333333  0.50000000  0.40785113
   0.16666667  0.83333333  0.40785113
   0.50000000  0.83333333  0.40785113
   0.83333333  0.83333333  0.40785113
   0.00000000  0.00000000  0.46928371
   0.33333333  0.00000000  0.46928371
   0.66666667  0.00000000  0.46928371
   0.00000000  0.33333333  0.46928371
   0.33333333  0.33333333  0.46928371
   0.66666667  0.33333333  0.46928371
   0.00000000  0.66666667  0.46928371
   0.33333333  0.66666667  0.46928371
   0.66666667  0.66666667  0.46928371
   0.16660393  0.16660393  0.53223794
   0.50017375  0.16664073  0.53224872
   0.83328995  0.16758102  0.53263470
   0.16664073  0.50017375  0.53224872
   0.50016362  0.50016362  0.53222178
   0.83319919  0.49906181  0.53265288
   0.16758102  0.83328996  0.53263470
   0.49906182  0.83319919  0.53265288
   0.83330878  0.83330878  0.53422459
   0.99926104  0.99926104  0.59918187
   0.33327814  0.00013096  0.59835147
   0.66721672  0.99927034  0.59924626
   0.00013095  0.33327813  0.59835147
   0.33326364  0.33326363  0.59876195
   0.66670896  0.33325693  0.59840467
   0.99927034  0.66721673  0.59924626
   0.33325693  0.66670896  0.59840468
   0.66726851  0.66726851  0.59929735
   0.16786666  0.16786666  0.64159752
   0.16665048  0.16665048  0.68199894
   0.16778590  0.49878079  0.64158739
   0.16663565  0.49975051  0.68197035
   0.12281282  0.83340911  0.64153862
   0.14376271  0.83351394  0.68134843
   0.49878080  0.16778590  0.64158739
   0.49975051  0.16663565  0.68197034
   0.49875800  0.49875800  0.64157971
   0.49989486  0.49989486  0.68200584
   0.54380901  0.83345231  0.64153327
   0.52270455  0.83353750  0.68132913
   0.83340911  0.12281283  0.64153862
   0.83351394  0.14376272  0.68134843
   0.83345231  0.54380904  0.64153327
   0.83353750  0.52270454  0.68132912
Direct configuration=    12
   0.16666667  0.16666667  0.40785113
   0.50000000  0.16666667  0.40785113
   0.83333333  0.16666667  0.40785113
   0.16666667  0.50000000  0.40785113
   0.50000000  0.50000000  0.40785113
   0.83333333  0.50000000  0.40785113
   0.16666667  0.83333333  0.40785113
   0.50000000  0.83333333  0.40785113
   0.83333333  0.83333333  0.40785113
   0.00000000  0.00000000  0.46928371
   0.33333333  0.00000000  0.46928371
   0.66666667  0.00000000  0.46928371
   0.00000000  0.33333333  0.46928371
   0.33333333  0.33333333  0.46928371
   0.66666667  0.33333333  0.46928371
   0.00000000  0.66666667  0.46928371
   0.33333333  0.66666667  0.46928371
   0.66666667  0.66666667  0.46928371
   0.16658720  0.16658719  0.53242571
   0.50019087  0.16662460  0.53243657
   0.83329243  0.16758054  0.53283320
   0.16662460  0.50019087  0.53243657
   0.50018000  0.50017999  0.53240599
   0.83319811  0.49905434  0.53285178
   0.16758054  0.83329243  0.53283320
   0.49905435  0.83319812  0.53285178
   0.83331169  0.83331169  0.53437703
   0.99934842  0.99934842  0.59929229
   0.33328791  0.00010637  0.59842091
   0.66710290  0.99935931  0.59936100
   0.00010636  0.33328790  0.59842091
   0.33326695  0.33326694  0.59884245
   0.66673582  0.33325891  0.59847816
   0.99935930  0.66710290  0.59936100
   0.33325892  0.66673583  0.59847816
   0.66716292  0.66716292  0.59941551
   0.16782480  0.16782480  0.64165350
   0.16668489  0.16668488  0.68191399
   0.16774151  0.49882890  0.64163702
   0.16666857  0.49971457  0.68188853
   0.12121756  0.83340498  0.64149847
   0.14316523  0.83350819  0.68137821
   0.49882891  0.16774150  0.64163702
   0.49971457  0.16666856  0.68188853
   0.49880685  0.49880685  0.64164203
   0.49986574  0.49986574  0.68191296
   0.54541176  0.83344997  0.64148702
   0.52329810  0.83353580  0.68136395
   0.83340498  0.12121756  0.64149847
   0.83350819  0.14316524  0.68137821
   0.83344997  0.54541180  0.64148701
   0.83353579  0.52329808  0.68136395
Direct configuration=    13
   0.16666667  0.16666667  0.40785113
   0.50000000  0.16666667  0.40785113
   0.83333333  0.16666667  0.40785113
   0.16666667  0.50000000  0.40785113
   0.50000000  0.50000000  0.40785113
   0.83333333  0.50000000  0.40785113
   0.16666667  0.83333333  0.40785113
   0.50000000  0.83333333  0.40785113
   0.83333333  0.83333333  0.40785113
   0.00000000  0.00000000  0.46928371
   0.33333333  0.00000000  0.46928371
   0.66666667  0.00000000  0.46928371
   0.00000000  0.33333333  0.46928371
   0.33333333  0.33333333  0.46928371
   0.66666667  0.33333333  0.46928371
   0.00000000  0.66666667  0.46928371
   0.33333333  0.66666667  0.46928371
   0.66666667  0.66666667  0.46928371
   0.16658885  0.16658885  0.53243712
   0.50019042  0.16662721  0.53244790
   0.83329202  0.16756824  0.53285681
   0.16662721  0.50019042  0.53244790
   0.50017895  0.50017895  0.53241695
   0.83319751  0.49906580  0.53287528
   0.16756824  0.83329203  0.53285681
   0.49906580  0.83319752  0.53287528
   0.83331031  0.83331031  0.53438191
   0.99941140  0.99941140  0.59927253
   0.33328415  0.00012668  0.59841409
   0.66704090  0.99942618  0.59934004
   0.00012667  0.33328414  0.59841409
   0.33326822  0.33326821  0.59884975
   0.66671648  0.33325759  0.59847175
   0.99942618  0.66704090  0.59934004
   0.33325759  0.66671648  0.59847175
   0.66709732  0.66709732  0.59939413
   0.16779352  0.16779352  0.64168830
   0.16669137  0.16669137  0.68188429
   0.16771347  0.49886003  0.64166821
   0.16667479  0.49970907  0.68186327
   0.12095106  0.83340465  0.64157394
   0.14302142  0.83350582  0.68137722
   0.49886004  0.16771346  0.64166821
   0.49970907  0.16667479  0.68186326
   0.49883896  0.49883896  0.64167944
   0.49985866  0.49985866  0.68188234
   0.54567635  0.83344855  0.64156361
   0.52343673  0.83353522  0.68136353
   0.83340465  0.12095106  0.64157394
   0.83350582  0.14302143  0.68137722
   0.83344854  0.54567639  0.64156360
   0.83353522  0.52343671  0.68136354
Direct configuration=    14
   0.16666667  0.16666667  0.40785113
   0.50000000  0.16666667  0.40785113
   0.83333333  0.16666667  0.40785113
   0.16666667  0.50000000  0.40785113
   0.50000000  0.50000000  0.40785113
   0.83333333  0.50000000  0.40785113
   0.16666667  0.83333333  0.40785113
   0.50000000  0.83333333  0.40785113
   0.83333333  0.83333333  0.40785113
   0.00000000  0.00000000  0.46928371
   0.33333333  0.00000000  0.46928371
   0.66666667  0.00000000  0.46928371
   0.00000000  0.33333333  0.46928371
   0.33333333  0.33333333  0.46928371
   0.66666667  0.33333333  0.46928371
   0.00000000  0.66666667  0.46928371
   0.33333333  0.66666667  0.46928371
   0.66666667  0.66666667  0.46928371
   0.16659380  0.16659380  0.53247136
   0.50018906  0.16663503  0.53248188
   0.83329081  0.16753132  0.53292765
   0.16663503  0.50018906  0.53248188
   0.50017582  0.50017582  0.53244983
   0.83319572  0.49910016  0.53294578
   0.16753133  0.83329081  0.53292765
   0.49910016  0.83319573  0.53294578
   0.83330620  0.83330620  0.53439652
   0.99960032  0.99960032  0.59921327
   0.33327286  0.00018761  0.59839360
   0.66685490  0.99962681  0.59927716
   0.00018760  0.33327285  0.59839360
   0.33327202  0.33327201  0.59887167
   0.66665846  0.33325362  0.59845251
   0.99962680  0.66685491  0.59927716
   0.33325363  0.66665846  0.59845251
   0.66690052  0.66690051  0.59932996
   0.16769969  0.16769968  0.64179271
   0.16671083  0.16671083  0.68179521
   0.16762935  0.49895343  0.64176179
   0.16669346  0.49969256  0.68178748
   0.12015157  0.83340365  0.64180036
   0.14259000  0.83349868  0.68137426
   0.49895343  0.16762935  0.64176179
   0.49969256  0.16669345  0.68178748
   0.49893527  0.49893527  0.64179166
   0.49983742  0.49983741  0.68179050
   0.54647014  0.83344427  0.64179338
   0.52385262  0.83353350  0.68136229
   0.83340365  0.12015157  0.64180037
   0.83349868  0.14259000  0.68137426
   0.83344426  0.54647016  0.64179338
   0.83353350  0.52385261  0.68136229
Direct configuration=    15
   0.16666667  0.16666667  0.40785113
   0.50000000  0.16666667  0.40785113
   0.83333333  0.16666667  0.40785113
   0.16666667  0.50000000  0.40785113
   0.50000000  0.50000000  0.40785113
   0.83333333  0.50000000  0.40785113
   0.16666667  0.83333333  0.40785113
   0.50000000  0.83333333  0.40785113
   0.83333333  0.83333333  0.40785113
   0.00000000  0.00000000  0.46928371
   0.33333333  0.00000000  0.46928371
   0.66666667  0.00000000  0.46928371
   0.00000000  0.33333333  0.46928371
   0.33333333  0.33333333  0.46928371
   0.66666667  0.33333333  0.46928371
   0.00000000  0.66666667  0.46928371
   0.33333333  0.66666667  0.46928371
   0.66666667  0.66666667  0.46928371
   0.16659837  0.16659837  0.53247051
   0.50018633  0.16664100  0.53248091
   0.83329005  0.16751290  0.53294474
   0.16664100  0.50018633  0.53248091
   0.50017227  0.50017227  0.53244871
   0.83319507  0.49911799  0.53296274
   0.16751290  0.83329005  0.53294474
   0.49911800  0.83319508  0.53296274
   0.83330384  0.83330384  0.53438967
   0.99968600  0.99968601  0.59917429
   0.33326639  0.00022360  0.59837477
   0.66677324  0.99971782  0.59923604
   0.00022360  0.33326638  0.59837477
   0.33327362  0.33327361  0.59887445
   0.66662392  0.33325125  0.59843394
   0.99971782  0.66677325  0.59923603
   0.33325126  0.66662393  0.59843394
   0.66681316  0.66681316  0.59928785
   0.16765745  0.16765744  0.64178932
   0.16671599  0.16671599  0.68181052
   0.16759184  0.49899486  0.64175882
   0.16669875  0.49968881  0.68180361
   0.11985219  0.83340350  0.64186651