       N       E                     dE             d eps       ncg     rms          rms(c)
DAV:   1     0.427215313655E+04    0.42722E+04   -0.16495E+05  2610   0.165E+03
DAV:   2     0.631666024260E+03   -0.36405E+04   -0.35023E+04  2634   0.414E+02
DAV:   3    -0.163440903008E+02   -0.64801E+03   -0.59537E+03  3515   0.212E+02
DAV:   4    -0.152825753977E+03   -0.13648E+03   -0.12855E+03  4340   0.907E+01
DAV:   5    -0.167547492581E+03   -0.14722E+02   -0.13443E+02  4140   0.317E+01    0.560E+01
DAV:   6    -0.146541072379E+03    0.21006E+02   -0.39775E+02  3252   0.132E+02    0.378E+01
DAV:   7    -0.134654097677E+03    0.11887E+02   -0.20591E+02  3516   0.148E+02    0.246E+01
DAV:   8    -0.121478956828E+03    0.13175E+02   -0.48894E+01  4076   0.951E+01    0.165E+01
DAV:   9    -0.119060802946E+03    0.24182E+01   -0.19477E+01  4084   0.656E+01    0.951E+00
DAV:  10    -0.118879584152E+03    0.18122E+00   -0.12728E+01  3724   0.285E+01    0.554E+00
DAV:  11    -0.118871402376E+03    0.81818E-02   -0.32187E+00  3516   0.202E+01    0.368E+00
DAV:  12    -0.118923805318E+03   -0.52403E-01   -0.25619E+00  3044   0.223E+01    0.251E+00
DAV:  13    -0.118946338537E+03   -0.22533E-01   -0.99506E-01  3108   0.102E+01    0.215E+00
DAV:  14    -0.118868289190E+03    0.78049E-01   -0.30455E-01  3516   0.428E+00    0.977E-01
DAV:  15    -0.118861757134E+03    0.65321E-02   -0.13713E-01  3876   0.324E+00    0.468E-01
DAV:  16    -0.118861318933E+03    0.43820E-03   -0.34089E-02  3004   0.127E+00    0.258E-01
DAV:  17    -0.118860694210E+03    0.62472E-03   -0.71333E-03  3044   0.931E-01    0.178E-01
DAV:  18    -0.118860237145E+03    0.45706E-03   -0.29336E-03  3466   0.807E-01    0.100E-01
DAV:  19    -0.118860145703E+03    0.91442E-04   -0.13816E-03  3907   0.340E-01    0.622E-02
DAV:  20    -0.118860321676E+03   -0.17597E-03   -0.31546E-04  3916   0.250E-01    0.427E-02
DAV:  21    -0.118860541530E+03   -0.21985E-03   -0.15279E-04  3827   0.149E-01    0.311E-02
DAV:  22    -0.118860938121E+03   -0.39659E-03   -0.19663E-04  3230   0.118E-01    0.162E-02
DAV:  23    -0.118861348840E+03   -0.41072E-03   -0.85840E-05  3622   0.781E-02    0.225E-02
DAV:  24    -0.118861562280E+03   -0.21344E-03   -0.30782E-05  3083   0.690E-02    0.150E-02
DAV:  25    -0.118861788403E+03   -0.22612E-03   -0.35721E-05  3564   0.394E-02    0.413E-03
DAV:  26    -0.118861889450E+03   -0.10105E-03   -0.95072E-06  3109   0.232E-02    0.389E-03
DAV:  27    -0.118861933456E+03   -0.44006E-04   -0.25400E-06  1929   0.190E-02    0.284E-03
DAV:  28    -0.118861988556E+03   -0.55100E-04   -0.22969E-06  1892   0.802E-03    0.135E-03
DAV:  29    -0.118862016439E+03   -0.27882E-04   -0.10427E-06  1690   0.935E-03    0.156E-03
DAV:  30    -0.118862031459E+03   -0.15021E-04   -0.69764E-07  1669   0.767E-03    0.106E-03
DAV:  31    -0.118862046058E+03   -0.14598E-04   -0.57365E-07  1698   0.421E-03    0.573E-04
DAV:  32    -0.118862051290E+03   -0.52322E-05   -0.31676E-07  1663   0.344E-03    0.551E-04
DAV:  33    -0.118862053706E+03   -0.24158E-05   -0.15348E-07  1597   0.299E-03    0.439E-04
DAV:  34    -0.118862055183E+03   -0.14771E-05   -0.80201E-08  1588   0.169E-03    0.250E-04
DAV:  35    -0.118862057290E+03   -0.21069E-05   -0.63904E-08  1552   0.167E-03    0.293E-04
DAV:  36    -0.118862057766E+03   -0.47666E-06   -0.26816E-08  1543   0.104E-03
   1 F= -.11886206E+03 E0= -.11883177E+03  d E =-.118862E+03
       N       E                     dE             d eps       ncg     rms          rms(c)
DAV:   1    -0.806607612620E+02    0.38201E+02   -0.72701E+03  3558   0.149E+02    0.282E+01
DAV:   2    -0.179324813890E+03   -0.98664E+02   -0.92286E+02  4404   0.115E+02    0.293E+01
DAV:   3    -0.161328277002E+03    0.17997E+02   -0.14518E+02  3764   0.109E+02    0.288E+01
DAV:   4    -0.153895275894E+03    0.74330E+01   -0.22538E+01  3796   0.647E+01    0.238E+01
DAV:   5    -0.178359349181E+03   -0.24464E+02   -0.47426E+01  3572   0.481E+01    0.403E+01
DAV:   6    -0.159969143528E+03    0.18390E+02   -0.94014E+00  3573   0.347E+01    0.383E+01
DAV:   7    -0.157969814871E+03    0.19993E+01   -0.12656E+02  3980   0.291E+01    0.181E+01
DAV:   8    -0.150335762937E+03    0.76341E+01   -0.50790E+00  3735   0.318E+01    0.943E+00
DAV:   9    -0.149536121734E+03    0.79964E+00   -0.66375E+00  3908   0.121E+01    0.813E+00
DAV:  10    -0.149633510907E+03   -0.97389E-01   -0.29638E+00  2924   0.321E+00    0.837E+00
DAV:  11    -0.149684756570E+03   -0.51246E-01   -0.87847E-01  3668   0.101E+00    0.716E+00
DAV:  12    -0.149741457569E+03   -0.56701E-01   -0.70109E-02  3660   0.116E+00    0.777E+00
DAV:  13    -0.149267801522E+03    0.47366E+00   -0.22199E+00  4292   0.694E+00    0.100E+01
DAV:  14    -0.149196966141E+03    0.70835E-01   -0.91843E-01  3951   0.130E+00    0.498E+00
DAV:  15    -0.149173996304E+03    0.22970E-01   -0.18668E-01  3260   0.296E+00    0.484E+00
DAV:  16    -0.149161184683E+03    0.12812E-01   -0.24538E-02  3948   0.109E+00    0.302E+00
DAV:  17    -0.149163121259E+03   -0.19366E-02   -0.33726E-02  3786   0.530E-01    0.812E-01
DAV:  18    -0.149173645423E+03   -0.10524E-01   -0.50734E-03  3191   0.610E-01    0.756E-01
DAV:  19    -0.149176271048E+03   -0.26256E-02   -0.13258E-02  3762   0.368E-01    0.480E-01
DAV:  20    -0.149178074941E+03   -0.18039E-02   -0.29291E-03  3538   0.243E-01    0.290E-01
DAV:  21    -0.149178751417E+03   -0.67648E-03   -0.66671E-04  3684   0.207E-01    0.270E-01
DAV:  22    -0.149179631724E+03   -0.88031E-03   -0.57613E-04  3655   0.156E-01    0.406E-01
DAV:  23    -0.149180148692E+03   -0.51697E-03   -0.53242E-03  3522   0.113E-01    0.282E-01
DAV:  24    -0.149180397782E+03   -0.24909E-03   -0.29589E-03  3700   0.822E-02    0.181E-01
DAV:  25    -0.149180676500E+03   -0.27872E-03   -0.83861E-04  3511   0.657E-02    0.652E-02
DAV:  26    -0.149181030181E+03   -0.35368E-03   -0.57007E-05  3012   0.318E-02    0.537E-02
DAV:  27    -0.149181343271E+03   -0.31309E-03   -0.10774E-04  2930   0.271E-02    0.534E-02
DAV:  28    -0.149181479317E+03   -0.13605E-03   -0.87455E-05  2972   0.267E-02    0.610E-02
DAV:  29    -0.149181536943E+03   -0.57627E-04   -0.20982E-05  2172   0.162E-02    0.329E-02
DAV:  30    -0.149181587671E+03   -0.50727E-04   -0.14958E-05  2012   0.131E-02    0.186E-02
DAV:  31    -0.149181620140E+03   -0.32469E-04   -0.46147E-06  1949   0.751E-03    0.568E-03
DAV:  32    -0.149181632417E+03   -0.12277E-04   -0.15006E-06  1780   0.714E-03    0.519E-03
DAV:  33    -0.149181642729E+03   -0.10312E-04   -0.31226E-06  1679   0.646E-03    0.946E-03
DAV:  34    -0.149181646873E+03   -0.41446E-05   -0.70694E-07  1708   0.403E-03    0.699E-03
DAV:  35    -0.149181650132E+03   -0.32589E-05   -0.65020E-07  1607   0.336E-03    0.244E-03
DAV:  36    -0.149181652615E+03   -0.24831E-05   -0.47932E-07  1596   0.239E-03    0.408E-03
DAV:  37    -0.149181654679E+03   -0.20638E-05   -0.11979E-06  1628   0.239E-03    0.501E-03
DAV:  38    -0.149181655788E+03   -0.11084E-05   -0.23655E-07  1556   0.169E-03    0.183E-03
DAV:  39    -0.149181656262E+03   -0.47480E-06   -0.84111E-08  1524   0.117E-03
   2 F= -.14918166E+03 E0= -.14909537E+03  d E =-.303196E+02
       N       E                     dE             d eps       ncg     rms          rms(c)
DAV:   1    -0.145604799927E+03    0.35769E+01   -0.41924E+02  2634   0.317E+01    0.111E+01
DAV:   2    -0.158183827335E+03   -0.12579E+02   -0.64315E+01  4791   0.496E+01    0.385E+01
DAV:   3    -0.151893264904E+03    0.62906E+01   -0.63150E+01  4060   0.150E+01    0.187E+01
DAV:   4    -0.146912933517E+03    0.49803E+01   -0.67904E+00  3791   0.489E+01    0.699E+00
DAV:   5    -0.146994698299E+03   -0.81765E-01   -0.26599E+00  4700   0.257E+01    0.129E+01
DAV:   6    -0.146692341529E+03    0.30236E+00   -0.32271E+00  3780   0.376E+00    0.672E+00
DAV:   7    -0.146603771637E+03    0.88570E-01   -0.36996E-01  3284   0.113E+01    0.365E+00
DAV:   8    -0.146732327245E+03   -0.12856E+00   -0.10332E+00  3445   0.965E+00    0.794E+00
DAV:   9    -0.146553209713E+03    0.17912E+00   -0.52117E-01  4023   0.407E+00    0.337E+00
DAV:  10    -0.146516057543E+03    0.37152E-01   -0.12866E-01  4100   0.221E+00    0.895E-01
DAV:  11    -0.146520867233E+03   -0.48097E-02   -0.58595E-02  3628   0.167E+00    0.126E+00
DAV:  12    -0.146517321814E+03    0.35454E-02   -0.19696E-02  3610   0.107E+00    0.588E-01
DAV:  13    -0.146516927389E+03    0.39443E-03   -0.32519E-03  3236   0.789E-01    0.194E-01
DAV:  14    -0.146516878568E+03    0.48821E-04   -0.20896E-03  3687   0.416E-01    0.331E-01
DAV:  15    -0.146516790424E+03    0.88144E-04   -0.15748E-03  3316   0.350E-01    0.165E-01
DAV:  16    -0.146516767049E+03    0.23375E-04   -0.45209E-04  3332   0.172E-01    0.122E-01
DAV:  17    -0.146516744463E+03    0.22586E-04   -0.13350E-04  3156   0.125E-01    0.585E-02
DAV:  18    -0.146516755847E+03   -0.11384E-04   -0.69361E-05  3324   0.659E-02    0.154E-02
DAV:  19    -0.146516769761E+03   -0.13914E-04   -0.21169E-05  3068   0.412E-02    0.325E-02
DAV:  20    -0.146516772933E+03   -0.31727E-05   -0.78445E-06  2916   0.233E-02    0.175E-02
DAV:  21    -0.146516777014E+03   -0.40804E-05   -0.17432E-06  1868   0.163E-02    0.530E-03
DAV:  22    -0.146516782327E+03   -0.53128E-05   -0.12646E-06  1716   0.102E-02    0.342E-03
DAV:  23    -0.146516786362E+03   -0.40353E-05   -0.82640E-07  1676   0.792E-03    0.546E-03
DAV:  24    -0.146516789505E+03   -0.31434E-05   -0.62049E-07  1660   0.546E-03    0.226E-03
DAV:  25    -0.146516793584E+03   -0.40783E-05   -0.66666E-07  1676   0.451E-03    0.519E-03
DAV:  26    -0.146516795989E+03   -0.24055E-05   -0.59112E-07  1660   0.336E-03    0.123E-03
DAV:  27    -0.146516797692E+03   -0.17025E-05   -0.25268E-07  1612   0.262E-03    0.185E-03
DAV:  28    -0.146516798318E+03   -0.62649E-06   -0.12049E-07  1612   0.219E-03
   3 F= -.14651680E+03 E0= -.14644140E+03  d E =-.276547E+02
       N       E                     dE             d eps       ncg     rms          rms(c)
DAV:   1    -0.147967734464E+03   -0.14509E+01   -0.83661E+01  2610   0.140E+01    0.283E+00
DAV:   2    -0.148411418475E+03   -0.44368E+00   -0.49659E+00  4332   0.149E+01    0.317E+00
DAV:   3    -0.149377959186E+03   -0.96654E+00   -0.45966E+00  3791   0.119E+01    0.212E+01
DAV:   4    -0.148473665475E+03    0.90429E+00   -0.75164E+00  4671   0.496E+00    0.111E+01
DAV:   5    -0.148425030205E+03    0.48635E-01   -0.25352E+00  3836   0.172E+00    0.475E+00
DAV:   6    -0.148330699503E+03    0.94331E-01   -0.30787E-01  3087   0.828E+00    0.961E-01
DAV:   7    -0.148332605065E+03   -0.19056E-02   -0.42802E-02  3447   0.444E+00    0.104E+00
DAV:   8    -0.148329125918E+03    0.34791E-02   -0.60545E-02  4354   0.347E+00    0.803E-01
DAV:   9    -0.148328140343E+03    0.98558E-03   -0.93199E-03  4039   0.135E+00    0.577E-01
DAV:  10    -0.148327351046E+03    0.78930E-03   -0.42733E-03  3068   0.436E-01    0.227E-01
DAV:  11    -0.148327438827E+03   -0.87781E-04   -0.13584E-03  3319   0.344E-01    0.393E-02
DAV:  12    -0.148327558720E+03   -0.11989E-03   -0.31466E-04  3292   0.172E-01    0.514E-02
DAV:  13    -0.148327585099E+03   -0.26379E-04   -0.10787E-04  2911   0.995E-02    0.502E-02
DAV:  14    -0.148327583721E+03    0.13779E-05   -0.26922E-05  3028   0.580E-02    0.345E-02
DAV:  15    -0.148327588936E+03   -0.52145E-05   -0.88661E-06  2796   0.255E-02    0.171E-02
DAV:  16    -0.148327595044E+03   -0.61080E-05   -0.51355E-06  1900   0.197E-02    0.313E-03
DAV:  17    -0.148327599341E+03   -0.42969E-05   -0.14747E-06  1748   0.118E-02    0.371E-03
DAV:  18    -0.148327606301E+03   -0.69598E-05   -0.93872E-07  1743   0.878E-03    0.319E-03
DAV:  19    -0.148327609226E+03   -0.29257E-05   -0.49382E-07  1612   0.478E-03    0.280E-03
DAV:  20    -0.148327611213E+03   -0.19871E-05   -0.30879E-07  1559   0.373E-03    0.215E-03
DAV:  21    -0.148327613704E+03   -0.24908E-05   -0.32051E-07  1660   0.365E-03    0.699E-04
DAV:  22    -0.148327616149E+03   -0.24450E-05   -0.25631E-07  1631   0.241E-03    0.133E-03
DAV:  23    -0.148327617858E+03   -0.17091E-05   -0.23561E-07  1607   0.275E-03    0.107E-03
DAV:  24    -0.148327618313E+03   -0.45524E-06   -0.11253E-07  1564   0.177E-03
   4 F= -.14832762E+03 E0= -.14824663E+03  d E =-.294656E+02
       N       E                     dE             d eps       ncg     rms          rms(c)
DAV:   1    -0.149187624107E+03   -0.86001E+00   -0.35417E+01  2610   0.913E+00    0.222E+00
DAV:   2    -0.149512375814E+03   -0.32475E+00   -0.28192E+00  4618   0.118E+01    0.738E+00
DAV:   3    -0.149572954286E+03   -0.60578E-01   -0.57971E+00  3970   0.316E+00    0.910E+00
DAV:   4    -0.149280164161E+03    0.29279E+00   -0.18759E+00  3284   0.123E+01    0.297E+00
DAV:   5    -0.149456024187E+03   -0.17586E+00   -0.26897E-01  4042   0.201E+00    0.849E+00
DAV:   6    -0.149249801591E+03    0.20622E+00   -0.19898E-01  3690   0.426E+00    0.124E+00
DAV:   7    -0.149264107566E+03   -0.14306E-01   -0.45350E-02  3549   0.500E+00    0.964E-01
DAV:   8    -0.149258831500E+03    0.52761E-02   -0.39174E-02  3710   0.308E+00    0.568E-01
DAV:   9    -0.149259170283E+03   -0.33878E-03   -0.80681E-03  3967   0.707E-01    0.303E-01
DAV:  10    -0.149258900114E+03    0.27017E-03   -0.15239E-03  3052   0.431E-01    0.133E-01
DAV:  11    -0.149258909217E+03   -0.91034E-05   -0.69209E-04  3452   0.172E-01    0.495E-02
DAV:  12    -0.149258941890E+03   -0.32673E-04   -0.30434E-04  3140   0.202E-01    0.449E-02
DAV:  13    -0.149258936395E+03    0.54951E-05   -0.77220E-05  2996   0.118E-01    0.246E-02
DAV:  14    -0.149258937243E+03   -0.84861E-06   -0.22984E-05  2964   0.458E-02    0.118E-02
DAV:  15    -0.149258938381E+03   -0.11378E-05   -0.35608E-06  1964   0.231E-02    0.363E-03
DAV:  16    -0.149258939685E+03   -0.13037E-05   -0.18994E-06  1684   0.125E-02    0.261E-03
DAV:  17    -0.149258940834E+03   -0.11489E-05   -0.99694E-07  1596   0.106E-02    0.391E-03
DAV:  18    -0.149258941559E+03   -0.72486E-06   -0.45819E-07  1524   0.542E-03
   5 F= -.14925894E+03 E0= -.14917406E+03  d E =-.303969E+02
       N       E                     dE             d eps       ncg     rms          rms(c)
DAV:   1    -0.149398917597E+03   -0.13998E+00   -0.46473E+00  2610   0.333E+00    0.919E-01
DAV:   2    -0.149465276378E+03   -0.66359E-01   -0.52324E-01  4565   0.465E+00    0.401E+00
DAV:   3    -0.149435237939E+03    0.30038E-01   -0.74169E-01  3954   0.118E+00    0.309E+00
DAV:   4    -0.149411987350E+03    0.23251E-01   -0.22537E-01  3210   0.507E+00    0.269E+00
DAV:   5    -0.149411539681E+03    0.44767E-03   -0.52548E-02  3975   0.392E-01    0.222E+00
DAV:   6    -0.149399790497E+03    0.11749E-01   -0.17964E-02  3216   0.231E+00    0.409E-01
DAV:   7    -0.149400588594E+03   -0.79810E-03   -0.89108E-03  3467   0.200E+00    0.251E-01
DAV:   8    -0.149400216393E+03    0.37220E-03   -0.44226E-03  3934   0.125E+00    0.224E-01
DAV:   9    -0.149400195382E+03    0.21011E-04   -0.11196E-03  4104   0.351E-01    0.805E-02
DAV:  10    -0.149400167779E+03    0.27603E-04   -0.19619E-04  3100   0.136E-01    0.535E-02
DAV:  11    -0.149400173897E+03   -0.61183E-05   -0.11227E-04  3164   0.732E-02    0.240E-02
DAV:  12    -0.149400177222E+03   -0.33248E-05   -0.17479E-05  2951   0.459E-02    0.208E-02
DAV:  13    -0.149400176424E+03    0.79838E-06   -0.11574E-05  2772   0.445E-02    0.653E-03
DAV:  14    -0.149400176459E+03   -0.35740E-07   -0.19945E-06  1564   0.176E-02
   6 F= -.14940018E+03 E0= -.14931460E+03  d E =-.305381E+02
       N       E                     dE             d eps       ncg     rms          rms(c)
DAV:   1    -0.149411561962E+03   -0.11386E-01   -0.69248E-01  2620   0.128E+00    0.369E-01
DAV:   2    -0.149422667457E+03   -0.11105E-01   -0.84472E-02  4539   0.184E+00    0.172E+00
DAV:   3    -0.149416249540E+03    0.64179E-02   -0.11954E-01  3935   0.468E-01    0.113E+00
DAV:   4    -0.149414868657E+03    0.13809E-02   -0.31808E-02  3197   0.200E+00    0.160E+00
DAV:   5    -0.149412141876E+03    0.27268E-02   -0.10553E-02  3925   0.173E-01    0.663E-01
DAV:   6    -0.149411232712E+03    0.90916E-03   -0.32139E-03  3133   0.102E+00    0.150E-01
DAV:   7    -0.149411383253E+03   -0.15054E-03   -0.13877E-03  3467   0.804E-01    0.835E-02
DAV:   8    -0.149411332724E+03    0.50528E-04   -0.58061E-04  4147   0.526E-01    0.949E-02
DAV:   9    -0.149411307412E+03    0.25313E-04   -0.18370E-04  4315   0.143E-01    0.328E-02
DAV:  10    -0.149411306839E+03    0.57311E-06   -0.28077E-05  3252   0.430E-02    0.106E-02
DAV:  11    -0.149411309061E+03   -0.22219E-05   -0.13622E-05  3036   0.252E-02    0.609E-03
DAV:  12    -0.149411309411E+03   -0.35082E-06   -0.23429E-06  1719   0.193E-02
   7 F= -.14941131E+03 E0= -.14932555E+03  d E =-.305493E+02
       N       E                     dE             d eps       ncg     rms          rms(c)
DAV:   1    -0.853196227102E+02    0.64092E+02   -0.89005E+03  3383   0.214E+02    0.504E+01
DAV:   2    -0.298461530518E+03   -0.21314E+03   -0.19863E+03  4268   0.135E+02    0.722E+01
DAV:   3    -0.246240440147E+03    0.52221E+02   -0.11634E+03  4964   0.287E+02    0.724E+01
DAV:   4    -0.162517664329E+03    0.83723E+02   -0.43819E+02  4020   0.129E+02    0.511E+01
DAV:   5    -0.158587172200E+03    0.39305E+01   -0.13008E+02  3580   0.718E+01    0.366E+01
DAV:   6    -0.144464948249E+03    0.14122E+02   -0.24376E+01  3436   0.371E+01    0.340E+01
DAV:   7    -0.138078315828E+03    0.63866E+01   -0.29310E+01  3116   0.229E+01    0.304E+01
DAV:   8    -0.128049380822E+03    0.10029E+02   -0.27472E+01  3607   0.145E+01    0.222E+01
DAV:   9    -0.122300603276E+03    0.57488E+01   -0.90885E+00  4514   0.224E+01    0.253E+01
DAV:  10    -0.122290956465E+03    0.96468E-02   -0.19458E+01  4214   0.102E+01    0.190E+01
DAV:  11    -0.120903680739E+03    0.13873E+01   -0.30975E+00  3756   0.203E+01    0.183E+01
DAV:  12    -0.119767512340E+03    0.11362E+01   -0.47628E+00  4005   0.133E+01    0.261E+01
DAV:  13    -0.119140851840E+03    0.62666E+00   -0.59305E-01  2884   0.226E+00    0.230E+01
DAV:  14    -0.118784676647E+03    0.35618E+00   -0.75848E-02  4823   0.165E+00    0.229E+01
DAV:  15    -0.119607047897E+03   -0.82237E+00   -0.48722E+00  3029   0.536E+00    0.248E+01
DAV:  16    -0.120068947847E+03   -0.46190E+00   -0.15354E+01  3232   0.748E+00    0.216E+01
DAV:  17    -0.117811839101E+03    0.22571E+01   -0.18736E+00  3904   0.465E+00    0.668E+00
DAV:  18    -0.119971471846E+03   -0.21596E+01   -0.70862E+00  3683   0.427E+00    0.305E+01
DAV:  19    -0.118893075817E+03    0.10784E+01   -0.17740E+00  3514   0.281E+00    0.234E+01
DAV:  20    -0.118482487539E+03    0.41059E+00   -0.24147E-01  3943   0.155E+00    0.196E+01
DAV:  21    -0.118046122157E+03    0.43637E+00   -0.48781E-01  3124   0.232E+00    0.123E+01
DAV:  22    -0.118087606099E+03   -0.41484E-01   -0.13974E-01  4204   0.106E+00    0.139E+01
DAV:  23    -0.118040764322E+03    0.46842E-01   -0.40744E-02  3596   0.536E-01    0.117E+01
DAV:  24    -0.117891214005E+03    0.14955E+00   -0.18784E-01  3236   0.625E-01    0.631E+00
DAV:  25    -0.117823582283E+03    0.67632E-01   -0.13116E-01  3140   0.492E-01    0.316E+00
DAV:  26    -0.117821149770E+03    0.24325E-02   -0.29985E-03  3244   0.162E-01    0.318E+00
DAV:  27    -0.117839064913E+03   -0.17915E-01   -0.44233E-02  3244   0.205E-01    0.453E+00
DAV:  28    -0.117859020077E+03   -0.19955E-01   -0.13715E-01  2988   0.769E-01    0.648E+00
DAV:  29    -0.117876174749E+03   -0.17155E-01   -0.46093E-01  3428   0.733E-01    0.562E+00
DAV:  30    -0.117838813455E+03    0.37361E-01   -0.16073E-02  3530   0.508E-01    0.505E+00
DAV:  31    -0.117817221628E+03    0.21592E-01   -0.19196E-02  3396   0.349E-01    0.348E+00
DAV:  32    -0.117818800711E+03   -0.15791E-02   -0.16679E-02  3052   0.582E-01    0.172E+00
DAV:  33    -0.117834744010E+03   -0.15943E-01   -0.22038E-02  3474   0.354E-01    0.103E+00
DAV:  34    -0.117844645665E+03   -0.99017E-02   -0.39877E-03  3504   0.233E-01    0.161E+00
DAV:  35    -0.117842661073E+03    0.19846E-02   -0.11922E-03  3720   0.188E-01    0.134E+00
DAV:  36    -0.117841589803E+03    0.10713E-02   -0.18514E-03  3860   0.130E-01    0.107E+00
DAV:  37    -0.117841773367E+03   -0.18356E-03   -0.20722E-03  3551   0.151E-01    0.109E+00
DAV:  38    -0.117842182530E+03   -0.40916E-03   -0.31081E-03  3138   0.154E-01    0.879E-01
DAV:  39    -0.117843520976E+03   -0.13384E-02   -0.14207E-03  3360   0.114E-01    0.599E-01
DAV:  40    -0.117844000324E+03   -0.47935E-03   -0.21480E-03  3388   0.921E-02    0.301E-01
DAV:  41    -0.117844548315E+03   -0.54799E-03   -0.94531E-04  3480   0.919E-02    0.281E-01
DAV:  42    -0.117844680266E+03   -0.13195E-03   -0.94628E-05  3376   0.549E-02    0.289E-01
DAV:  43    -0.117844795559E+03   -0.11529E-03   -0.12908E-03  2096   0.404E-02    0.217E-01
DAV:  44    -0.117845045557E+03   -0.25000E-03   -0.16017E-04  3512   0.454E-02    0.234E-01
DAV:  45    -0.117845039990E+03    0.55671E-05   -0.40490E-05  2181   0.312E-02    0.217E-01
DAV:  46    -0.117845068746E+03   -0.28756E-04   -0.83552E-05  2896   0.234E-02    0.906E-02
DAV:  47    -0.117845197554E+03   -0.12881E-03   -0.18788E-04  2557   0.245E-02    0.113E-01
DAV:  48    -0.117845222105E+03   -0.24551E-04   -0.23795E-05  2072   0.196E-02    0.106E-01
DAV:  49    -0.117845216382E+03    0.57225E-05   -0.51823E-05  1943   0.112E-02    0.184E-02
DAV:  50    -0.117845240599E+03   -0.24217E-04   -0.82464E-06  1720   0.849E-03    0.238E-02
DAV:  51    -0.117845247990E+03   -0.73906E-05   -0.56102E-06  1842   0.745E-03    0.153E-02
DAV:  52    -0.117845255176E+03   -0.71863E-05   -0.20493E-06  1656   0.590E-03    0.770E-03
DAV:  53    -0.117845258088E+03   -0.29114E-05   -0.23581E-06  1535   0.464E-03    0.152E-02
DAV:  54    -0.117845261584E+03   -0.34967E-05   -0.90753E-07  1600   0.300E-03    0.392E-03
DAV:  55    -0.117845264902E+03   -0.33175E-05   -0.31749E-07  1536   0.252E-03    0.302E-03
DAV:  56    -0.117845266930E+03   -0.20282E-05   -0.11489E-07  1471   0.227E-03    0.520E-03
DAV:  57    -0.117845268602E+03   -0.16720E-05   -0.15100E-07  1485   0.154E-03    0.128E-03
DAV:  58    -0.117845269810E+03   -0.12082E-05   -0.75617E-08  1490   0.124E-03    0.628E-04
DAV:  59    -0.117845270396E+03   -0.58603E-06   -0.49801E-08  1476   0.115E-03
   8 F= -.11784527E+03 E0= -.11772668E+03  d E =0.315660E+02
       N       E                     dE             d eps       ncg     rms          rms(c)
DAV:   1    -0.123376567339E+03   -0.55313E+01   -0.18477E+03  2810   0.740E+01    0.141E+01
DAV:   2    -0.137116668660E+03   -0.13740E+02   -0.14937E+02  4484   0.396E+01    0.169E+01
DAV:   3    -0.146409076409E+03   -0.92924E+01   -0.58210E+01  4380   0.465E+01    0.379E+01
DAV:   4    -0.134997235757E+03    0.11412E+02   -0.43594E+01  4332   0.193E+01    0.157E+01
DAV:   5    -0.134977946354E+03    0.19289E-01   -0.11353E+01  3620   0.518E+00    0.109E+01
DAV:   6    -0.134806968906E+03    0.17098E+00   -0.10294E+00  4612   0.919E+00    0.157E+01
DAV:   7    -0.134307798361E+03    0.49917E+00   -0.65873E+00  4388   0.331E+00    0.903E+00
DAV:   8    -0.134268167838E+03    0.39631E-01   -0.75571E-01  3644   0.107E+01    0.123E+01
DAV:   9    -0.133987987957E+03    0.28018E+00   -0.30761E+00  4644   0.308E+00    0.836E+00
DAV:  10    -0.133957716829E+03    0.30271E-01   -0.19269E-01  4052   0.255E+00    0.861E+00
DAV:  11    -0.133808860869E+03    0.14886E+00   -0.10053E+00  3684   0.196E+00    0.565E+00
DAV:  12    -0.133802802834E+03    0.60580E-02   -0.16037E-01  3772   0.308E+00    0.436E+00
DAV:  13    -0.133781931547E+03    0.20871E-01   -0.29044E-02  3775   0.787E-01    0.312E+00
DAV:  14    -0.133771720169E+03    0.10211E-01   -0.24316E-02  4004   0.429E-01    0.173E+00
DAV:  15    -0.133777258554E+03   -0.55384E-02   -0.20087E-02  3972   0.991E-01    0.512E-01
DAV:  16    -0.133785397501E+03   -0.81389E-02   -0.58547E-03  4338   0.501E-01    0.720E-01
DAV:  17    -0.133785101304E+03    0.29620E-03   -0.28369E-03  3036   0.663E-01    0.535E-01
DAV:  18    -0.133785192892E+03   -0.91588E-04   -0.86286E-04  3660   0.302E-01    0.283E-01
DAV:  19    -0.133785598961E+03   -0.40607E-03   -0.54413E-04  3247   0.296E-01    0.203E-01
DAV:  20    -0.133785874250E+03   -0.27529E-03   -0.19985E-04  3556   0.157E-01    0.698E-02
DAV:  21    -0.133786202300E+03   -0.32805E-03   -0.13452E-04  3828   0.756E-02    0.910E-02
DAV:  22    -0.133786431072E+03   -0.22877E-03   -0.10491E-04  3700   0.519E-02    0.112E-01
DAV:  23    -0.133786563615E+03   -0.13254E-03   -0.32005E-05  2804   0.302E-02    0.962E-02
DAV:  24    -0.133786728610E+03   -0.16500E-03   -0.32742E-05  2876   0.325E-02    0.364E-02
DAV:  25    -0.133786825423E+03   -0.96813E-04   -0.16158E-05  2364   0.276E-02    0.244E-02
DAV:  26    -0.133786970684E+03   -0.14526E-03   -0.12232E-05  2124   0.204E-02    0.488E-02
DAV:  27    -0.133787075025E+03   -0.10434E-03   -0.97961E-06  2340   0.221E-02    0.332E-02
DAV:  28    -0.133787127992E+03   -0.52966E-04   -0.48997E-06  2140   0.128E-02    0.194E-02
DAV:  29    -0.133787163464E+03   -0.35473E-04   -0.24407E-06  1916   0.104E-02    0.821E-03
DAV:  30    -0.133787184182E+03   -0.20718E-04   -0.12100E-06  1844   0.995E-03    0.424E-03
DAV:  31    -0.133787200483E+03   -0.16300E-04   -0.71951E-07  1756   0.647E-03    0.592E-03
DAV:  32    -0.133787213431E+03   -0.12948E-04   -0.82349E-07  1604   0.436E-03    0.433E-03
DAV:  33    -0.133787218215E+03   -0.47844E-05   -0.25236E-07  1527   0.376E-03    0.376E-03
DAV:  34    -0.133787223479E+03   -0.52635E-05   -0.28339E-07  1556   0.311E-03    0.217E-03
DAV:  35    -0.133787227365E+03   -0.38862E-05   -0.14878E-07  1524   0.161E-03    0.382E-04
DAV:  36    -0.133787229515E+03   -0.21501E-05   -0.72159E-08  1516   0.170E-03    0.401E-04
DAV:  37    -0.133787230809E+03   -0.12937E-05   -0.49061E-08  1476   0.130E-03    0.368E-04
DAV:  38    -0.133787232315E+03   -0.15059E-05   -0.49143E-08  1583   0.906E-04    0.296E-04
DAV:  39    -0.133787232615E+03   -0.30041E-06   -0.24299E-08  1476   0.793E-04
   9 F= -.13378723E+03 E0= -.13370347E+03  d E =0.156241E+02
       N       E                     dE             d eps       ncg     rms          rms(c)
DAV:   1    -0.138992069011E+03   -0.52048E+01   -0.46717E+02  2610   0.356E+01    0.579E+00
DAV:   2    -0.142744957065E+03   -0.37529E+01   -0.23487E+01  4211   0.174E+01    0.231E+01
DAV:   3    -0.141363621118E+03    0.13813E+01   -0.25280E+01  3956   0.576E+00    0.108E+01
DAV:   4    -0.142275675910E+03   -0.91205E+00   -0.66147E+00  3452   0.112E+01    0.156E+01
DAV:   5    -0.140783567692E+03    0.14921E+01   -0.26327E+00  4476   0.661E+00    0.492E+00
DAV:   6    -0.140848197252E+03   -0.64630E-01   -0.30629E-01  3572   0.645E+00    0.579E+00
DAV:   7    -0.140744382506E+03    0.10381E+00   -0.19893E-01  3588   0.147E+00    0.414E+00
DAV:   8    -0.140737930131E+03    0.64524E-02   -0.10107E-01  4924   0.138E+00    0.362E+00
DAV:   9    -0.140714912259E+03    0.23018E-01   -0.43925E-01  4876   0.196E+00    0.364E+00
DAV:  10    -0.140694393100E+03    0.20519E-01   -0.42250E-02  3844   0.164E+00    0.275E+00
DAV:  11    -0.140687828124E+03    0.65650E-02   -0.24986E-02  3516   0.192E+00    0.248E+00
DAV:  12    -0.140677575478E+03    0.10253E-01   -0.14533E-02  4092   0.131E+00    0.152E+00
DAV:  13    -0.140678617753E+03   -0.10423E-02   -0.19472E-02  4028   0.105E+00    0.992E-01
DAV:  14    -0.140681476691E+03   -0.28589E-02   -0.42120E-03  3700   0.363E-01    0.360E-01
DAV:  15    -0.140683188120E+03   -0.17114E-02   -0.10738E-03  3572   0.490E-01    0.208E-01
DAV:  16    -0.140683316043E+03   -0.12792E-03   -0.42774E-04  3412   0.314E-01    0.456E-02
DAV:  17    -0.140683538935E+03   -0.22289E-03   -0.15146E-04  3836   0.913E-02    0.719E-02
DAV:  18    -0.140683645441E+03   -0.10651E-03   -0.71708E-05  3148   0.943E-02    0.634E-02
DAV:  19    -0.140683715338E+03   -0.69898E-04   -0.29013E-05  3068   0.602E-02    0.268E-02
DAV:  20    -0.140683799926E+03   -0.84587E-04   -0.16208E-05  2740   0.266E-02    0.893E-03
DAV:  21    -0.140683867808E+03   -0.67882E-04   -0.58425E-06  2140   0.139E-02    0.997E-03
DAV:  22    -0.140683932628E+03   -0.64820E-04   -0.42839E-06  2268   0.201E-02    0.104E-02
DAV:  23    -0.140683991021E+03   -0.58393E-04   -0.48184E-06  2236   0.159E-02    0.575E-03
DAV:  24    -0.140684015524E+03   -0.24503E-04   -0.15742E-06  1980   0.878E-03    0.319E-03
DAV:  25    -0.140684033492E+03   -0.17968E-04   -0.79145E-07  1692   0.734E-03    0.230E-03
DAV:  26    -0.140684047915E+03   -0.14424E-04   -0.81146E-07  1812   0.603E-03    0.163E-03
DAV:  27    -0.140684053574E+03   -0.56585E-05   -0.29765E-07  1580   0.499E-03    0.155E-03
DAV:  28    -0.140684058168E+03   -0.45943E-05   -0.18684E-07  1460   0.322E-03    0.132E-03
DAV:  29    -0.140684061621E+03   -0.34530E-05   -0.12989E-07  1460   0.215E-03    0.942E-04
DAV:  30    -0.140684064562E+03   -0.29413E-05   -0.10164E-07  1468   0.239E-03    0.476E-04
DAV:  31    -0.140684065867E+03   -0.13048E-05   -0.60267E-08  1468   0.137E-03    0.486E-04
DAV:  32    -0.140684067487E+03   -0.16203E-05   -0.52216E-08  1436   0.152E-03    0.710E-04
DAV:  33    -0.140684068205E+03   -0.71735E-06   -0.33971E-08  1460   0.103E-03
  10 F= -.14068407E+03 E0= -.14060885E+03  d E =0.872724E+01
       N       E                     dE             d eps       ncg     rms          rms(c)
DAV:   1    -0.145996807366E+03   -0.53127E+01   -0.54409E+02  2666   0.401E+01    0.802E+00
DAV:   2    -0.152993961695E+03   -0.69972E+01   -0.47084E+01  4140   0.206E+01    0.250E+01
DAV:   3    -0.150310061422E+03    0.26839E+01   -0.77255E+00  3988   0.873E+00    0.172E+01
DAV:   4    -0.152275362620E+03   -0.19653E+01   -0.24451E+01  3692   0.701E+00    0.175E+01
DAV:   5    -0.148870619259E+03    0.34047E+01   -0.82985E-01  4076   0.163E+01    0.767E+00
DAV:   6    -0.148704786159E+03    0.16583E+00   -0.76178E-01  4172   0.100E+01    0.405E+00
DAV:   7    -0.148868240512E+03   -0.16345E+00   -0.19960E+00  3975   0.118E+01    0.855E+00
DAV:   8    -0.148656839702E+03    0.21140E+00   -0.75044E-01  3378   0.823E+00    0.406E+00
DAV:   9    -0.148693883913E+03   -0.37044E-01   -0.18641E-01  3980   0.410E+00    0.637E+00
DAV:  10    -0.148645605460E+03    0.48278E-01   -0.94094E-02  3812   0.170E+00    0.240E+00
DAV:  11    -0.148647244302E+03   -0.16388E-02   -0.15674E-01  3500   0.799E-01    0.197E+00
DAV:  12    -0.148647299177E+03   -0.54876E-04   -0.20404E-02  3164   0.684E-01    0.107E+00
DAV:  13    -0.148647885662E+03   -0.58648E-03   -0.31081E-03  3228   0.699E-01    0.411E-01
DAV:  14    -0.148648781659E+03   -0.89600E-03   -0.10803E-03  3359   0.416E-01    0.124E-01
DAV:  15    -0.148649287946E+03   -0.50629E-03   -0.10395E-03  3562   0.220E-01    0.179E-01
DAV:  16    -0.148649438833E+03   -0.15089E-03   -0.19049E-04  3191   0.151E-01    0.118E-01
DAV:  17    -0.148649777461E+03   -0.33863E-03   -0.11430E-04  3914   0.745E-02    0.410E-02
DAV:  18    -0.148650137377E+03   -0.35992E-03   -0.57228E-05  3159   0.574E-02    0.650E-02
DAV:  19    -0.148650398748E+03   -0.26137E-03   -0.71694E-05  3247   0.598E-02    0.283E-02
DAV:  20    -0.148650623832E+03   -0.22508E-03   -0.37100E-05  2962   0.333E-02    0.358E-02
DAV:  21    -0.148650773905E+03   -0.15007E-03   -0.19096E-05  2751   0.317E-02    0.294E-02
DAV:  22    -0.148650861498E+03   -0.87593E-04   -0.71229E-06  2290   0.159E-02    0.213E-02
DAV:  23    -0.148650902815E+03   -0.41317E-04   -0.34772E-06  2231   0.149E-02    0.774E-03
DAV:  24    -0.148650936889E+03   -0.34074E-04   -0.13432E-06  1933   0.101E-02    0.649E-03
DAV:  25    -0.148650962775E+03   -0.25886E-04   -0.12169E-06  1788   0.707E-03    0.675E-03
DAV:  26    -0.148650976746E+03   -0.13971E-04   -0.73597E-07  1741   0.501E-03    0.445E-03
DAV:  27    -0.148650989586E+03   -0.12840E-04   -0.44203E-07  1650   0.450E-03    0.397E-03
DAV:  28    -0.148650994704E+03   -0.51180E-05   -0.35390E-07  1519   0.382E-03    0.158E-03
DAV:  29    -0.148651000532E+03   -0.58284E-05   -0.23509E-07  1626   0.207E-03    0.318E-03
DAV:  30    -0.148651002392E+03   -0.18598E-05   -0.11620E-07  1437   0.208E-03    0.394E-04
DAV:  31    -0.148651004475E+03   -0.20833E-05   -0.64434E-08  1461   0.142E-03    0.103E-03
DAV:  32    -0.148651005764E+03   -0.12881E-05   -0.42057E-08  1458   0.948E-04    0.618E-04
DAV:  33    -0.148651006330E+03   -0.56683E-06   -0.23192E-08  1455   0.916E-04
  11 F= -.14865101E+03 E0= -.14856739E+03  d E =0.760303E+00
       N       E                     dE             d eps       ncg     rms          rms(c)
DAV:   1    -0.151000497534E+03   -0.23495E+01   -0.15784E+02  2610   0.200E+01    0.465E+00
DAV:   2    -0.152647112722E+03   -0.16466E+01   -0.13206E+01  4005   0.104E+01    0.203E+01
DAV:   3    -0.152130325577E+03    0.51679E+00   -0.18585E+01  4119   0.372E+00    0.141E+01
DAV:   4    -0.152801562912E+03   -0.67124E+00   -0.10756E+01  3916   0.294E+00    0.122E+01
DAV:   5    -0.151609718249E+03    0.11918E+01   -0.20183E+00  3391   0.125E+01    0.507E+00
DAV:   6    -0.151545764426E+03    0.63954E-01   -0.17766E-01  3280   0.989E+00    0.349E+00
DAV:   7    -0.151566487451E+03   -0.20723E-01   -0.73482E-01  3432   0.103E+01    0.544E+00
DAV:   8    -0.151502056069E+03    0.64431E-01   -0.14963E-01  3745   0.566E+00    0.240E+00
DAV:   9    -0.151503935706E+03   -0.18796E-02   -0.28333E-02  4207   0.122E+00    0.151E+00
DAV:  10    -0.151500645731E+03    0.32900E-02   -0.16182E-02  3212   0.719E-01    0.685E-01
DAV:  11    -0.151501452490E+03   -0.80676E-03   -0.56192E-03  3255   0.604E-01    0.188E-01
DAV:  12    -0.151501574691E+03   -0.12220E-03   -0.12015E-03  3308   0.538E-01    0.141E-01
DAV:  13    -0.151501834048E+03   -0.25936E-03   -0.71570E-04  3879   0.172E-01    0.117E-01
DAV:  14    -0.151502045733E+03   -0.21169E-03   -0.36010E-04  3162   0.163E-01    0.790E-02
DAV:  15    -0.151502297017E+03   -0.25128E-03   -0.80873E-05  3338   0.106E-01    0.354E-02
DAV:  16    -0.151502680415E+03   -0.38340E-03   -0.94154E-05  3120   0.886E-02    0.263E-02
DAV:  17    -0.151502967247E+03   -0.28683E-03   -0.49399E-05  3306   0.503E-02    0.203E-02
DAV:  18    -0.151503178102E+03   -0.21086E-03   -0.23374E-05  3096   0.461E-02    0.254E-02
DAV:  19    -0.151503279324E+03   -0.10122E-03   -0.15286E-05  2396   0.238E-02    0.138E-02
DAV:  20    -0.151503387765E+03   -0.10844E-03   -0.80500E-06  2523   0.252E-02    0.190E-02
DAV:  21    -0.151503425540E+03   -0.37775E-04   -0.24242E-06  2066   0.104E-02    0.233E-03
DAV:  22    -0.151503453778E+03   -0.28238E-04   -0.99377E-07  1834   0.116E-02    0.297E-03
DAV:  23    -0.151503475607E+03   -0.21829E-04   -0.56418E-07  1746   0.618E-03    0.327E-03
DAV:  24    -0.151503496076E+03   -0.20470E-04   -0.88667E-07  1856   0.497E-03    0.205E-03
DAV:  25    -0.151503503409E+03   -0.73329E-05   -0.24088E-07  1604   0.408E-03    0.116E-03
DAV:  26    -0.151503509245E+03   -0.58358E-05   -0.19059E-07  1546   0.334E-03    0.131E-03
DAV:  27    -0.151503513450E+03   -0.42048E-05   -0.17537E-07  1605   0.175E-03    0.105E-03
DAV:  28    -0.151503515978E+03   -0.25281E-05   -0.10987E-07  1512   0.174E-03    0.551E-04
DAV:  29    -0.151503517194E+03   -0.12157E-05   -0.56755E-08  1476   0.118E-03    0.629E-04
DAV:  30    -0.151503518536E+03   -0.13422E-05   -0.42867E-08  1515   0.103E-03    0.463E-04
DAV:  31    -0.151503519223E+03   -0.68732E-06   -0.26018E-08  1458   0.816E-04
  12 F= -.15150352E+03 E0= -.15141801E+03  d E =-.209221E+01
       N       E                     dE             d eps       ncg     rms          rms(c)
DAV:   1    -0.151538790847E+03   -0.35272E-01   -0.32553E+01  2610   0.832E+00    0.240E+00
DAV:   2    -0.151819144884E+03   -0.28035E+00   -0.20981E+00  4170   0.440E+00    0.113E+01
DAV:   3    -0.151711230783E+03    0.10791E+00   -0.34289E+00  4189   0.152E+00    0.771E+00
DAV:   4    -0.152081968244E+03   -0.37074E+00   -0.21922E+00  3996   0.172E+00    0.923E+00
DAV:   5    -0.151591754464E+03    0.49021E+00   -0.79761E-01  3319   0.683E+00    0.205E+00
DAV:   6    -0.151601919639E+03   -0.10165E-01   -0.50894E-02  3262   0.638E+00    0.162E+00
DAV:   7    -0.151599806289E+03    0.21134E-02   -0.12239E-01  3483   0.443E+00    0.194E+00
DAV:   8    -0.151592784707E+03    0.70216E-02   -0.16459E-02  4133   0.177E+00    0.533E-01
DAV:   9    -0.151594564081E+03   -0.17794E-02   -0.42815E-03  4052   0.430E-01    0.338E-01
DAV:  10    -0.151594812029E+03   -0.24795E-03   -0.15778E-03  3093   0.457E-01    0.294E-01
DAV:  11    -0.151594777469E+03    0.34560E-04   -0.50604E-04  3180   0.244E-01    0.114E-01
DAV:  12    -0.151594907459E+03   -0.12999E-03   -0.16246E-04  3109   0.173E-01    0.810E-02
DAV:  13    -0.151595016504E+03   -0.10904E-03   -0.60309E-05  3101   0.906E-02    0.302E-02
DAV:  14    -0.151595171648E+03   -0.15514E-03   -0.71547E-05  3149   0.636E-02    0.401E-02
DAV:  15    -0.151595244943E+03   -0.73295E-04   -0.14044E-05  3207   0.271E-02    0.284E-02
DAV:  16    -0.151595400291E+03   -0.15535E-03   -0.22124E-05  3021   0.433E-02    0.266E-02
DAV:  17    -0.151595468792E+03   -0.68501E-04   -0.72766E-06  2413   0.222E-02    0.443E-03
DAV:  18    -0.151595531052E+03   -0.62260E-04   -0.52730E-06  2573   0.256E-02    0.734E-03
DAV:  19    -0.151595580280E+03   -0.49228E-04   -0.25760E-06  2037   0.984E-03    0.579E-03
DAV:  20    -0.151595604064E+03   -0.23784E-04   -0.11931E-06  1986   0.952E-03    0.170E-03
DAV:  21    -0.151595616738E+03   -0.12674E-04   -0.51453E-07  1674   0.683E-03    0.277E-03
DAV:  22    -0.151595626977E+03   -0.10239E-04   -0.36857E-07  1608   0.367E-03    0.185E-03
DAV:  23    -0.151595635326E+03   -0.83487E-05   -0.34367E-07  1631   0.402E-03    0.188E-03
DAV:  24    -0.151595638851E+03   -0.35251E-05   -0.17577E-07  1573   0.261E-03    0.442E-04
DAV:  25    -0.151595640941E+03   -0.20895E-05   -0.10749E-07  1511   0.186E-03    0.404E-04
DAV:  26    -0.151595643451E+03   -0.25101E-05   -0.82091E-08  1538   0.138E-03    0.320E-04
DAV:  27    -0.151595644531E+03   -0.10801E-05   -0.50906E-08  1498   0.103E-03    0.197E-04
DAV:  28    -0.151595645011E+03   -0.48056E-06   -0.28732E-08  1458   0.104E-03
  13 F= -.15159565E+03 E0= -.15150989E+03  d E =-.218434E+01
       N       E                     dE             d eps       ncg     rms          rms(c)
DAV:   1    -0.151685211530E+03   -0.89567E-01   -0.70931E+00  2610   0.377E+00    0.108E+00
DAV:   2    -0.151735769689E+03   -0.50558E-01   -0.39426E-01  4089   0.186E+00    0.399E+00
DAV:   3    -0.151728074655E+03    0.76950E-02   -0.75690E-02  4080   0.746E-01    0.499E+00
DAV:   4    -0.151845389675E+03   -0.11732E+00   -0.36850E-01  3656   0.114E+00    0.928E+00
DAV:   5    -0.151672407217E+03    0.17298E+00   -0.10683E+00  3539   0.245E+00    0.101E+00
DAV:   6    -0.151690947186E+03   -0.18540E-01   -0.20170E-02  3102   0.272E+00    0.309E-01
DAV:   7    -0.151692057404E+03   -0.11102E-02   -0.39682E-03  3303   0.207E+00    0.313E-01
DAV:   8    -0.151691585323E+03    0.47208E-03   -0.30021E-03  3447   0.127E+00    0.213E-01
DAV:   9    -0.151691611184E+03   -0.25861E-04   -0.86023E-04  4042   0.451E-01    0.106E-01
DAV:  10    -0.151691682712E+03   -0.71528E-04   -0.21186E-04  3416   0.176E-01    0.623E-02
DAV:  11    -0.151691743880E+03   -0.61168E-04   -0.72750E-05  3210   0.925E-02    0.297E-02
DAV:  12    -0.151691802479E+03   -0.58599E-04   -0.24627E-05  3150   0.533E-02    0.119E-02
DAV:  13    -0.151691846472E+03   -0.43994E-04   -0.81070E-06  2912   0.273E-02    0.818E-03
DAV:  14    -0.151691920599E+03   -0.74127E-04   -0.11987E-05  2267   0.219E-02    0.137E-02
DAV:  15    -0.151691955763E+03   -0.35164E-04   -0.40634E-06  2232   0.166E-02    0.129E-02
DAV:  16    -0.151691987594E+03   -0.31831E-04   -0.37448E-06  2104   0.103E-02    0.449E-03
DAV:  17    -0.151692010663E+03   -0.23069E-04   -0.28531E-06  1984   0.832E-03    0.361E-03
DAV:  18    -0.151692016650E+03   -0.59875E-05   -0.57976E-07  1751   0.563E-03    0.406E-03
DAV:  19    -0.151692023982E+03   -0.73318E-05   -0.63647E-07  1758   0.434E-03    0.370E-03
DAV:  20    -0.151692027766E+03   -0.37837E-05   -0.28138E-07  1610   0.310E-03    0.248E-03
DAV:  21    -0.151692029341E+03   -0.15753E-05   -0.16870E-07  1531   0.324E-03    0.144E-03
DAV:  22    -0.151692031445E+03   -0.21038E-05   -0.17815E-07  1541   0.242E-03    0.503E-04
DAV:  23    -0.151692032100E+03   -0.65489E-06   -0.87898E-08  1461   0.139E-03
  14 F= -.15169203E+03 E0= -.15160636E+03  d E =-.228072E+01
       N       E                     dE             d eps       ncg     rms          rms(c)
DAV:   1    -0.151694278631E+03   -0.22472E-02   -0.11122E-01  2615   0.480E-01    0.135E-01
DAV:   2    -0.151695183604E+03   -0.90497E-03   -0.61366E-03  4118   0.245E-01    0.626E-01
DAV:   3    -0.151694981132E+03    0.20247E-03   -0.39623E-03  3789   0.883E-02    0.587E-01
DAV:   4    -0.151696304658E+03   -0.13235E-02   -0.87240E-03  3657   0.116E-01    0.806E-01
DAV:   5    -0.151694165029E+03    0.21396E-02   -0.81566E-03  3290   0.388E-01    0.868E-02
DAV:   6    -0.151694426443E+03   -0.26141E-03   -0.31800E-04  3071   0.365E-01    0.656E-02
DAV:   7    -0.151694423141E+03    0.33023E-05   -0.12421E-04  3364   0.236E-01    0.262E-02
DAV:   8    -0.151694427018E+03   -0.38770E-05   -0.20658E-05  3687   0.128E-01    0.180E-02
DAV:   9    -0.151694428236E+03   -0.12186E-05   -0.95763E-06  3684   0.423E-02    0.213E-02
DAV:  10    -0.151694428468E+03   -0.23126E-06   -0.20555E-06  1679   0.179E-02
  15 F= -.15169443E+03 E0= -.15160873E+03  d E =-.228312E+01
       N       E                     dE             d eps       ncg     rms          rms(c)
DAV:   1    -0.149934798905E+03    0.17596E+01   -0.15355E+03  3339   0.988E+01    0.117E+01
DAV:   2    -0.154750396241E+03   -0.48156E+01   -0.47658E+01  3708   0.421E+01    0.136E+01
DAV:   3    -0.166292200923E+03   -0.11542E+02   -0.46154E+01  3727   0.437E+01    0.376E+01
DAV:   4    -0.153422429624E+03    0.12870E+02   -0.29362E+01  3775   0.202E+01    0.694E+00
DAV:   5    -0.154149201137E+03   -0.72677E+00   -0.15392E+00  3852   0.154E+01    0.182E+01
DAV:   6    -0.153395477854E+03    0.75372E+00   -0.34986E+00  3788   0.408E+00    0.520E+00
DAV:   7    -0.153424521409E+03   -0.29044E-01   -0.19178E-01  3098   0.857E+00    0.421E+00
DAV:   8    -0.153394471817E+03    0.30050E-01   -0.14869E-01  3405   0.863E+00    0.281E+00
DAV:   9    -0.153379855441E+03    0.14616E-01   -0.72005E-02  3621   0.686E+00    0.158E+00
DAV:  10    -0.153374403539E+03    0.54519E-02   -0.65339E-02  4352   0.444E+00    0.168E+00
DAV:  11    -0.153366802144E+03    0.76014E-02   -0.48567E-02  3090   0.166E+00    0.685E-01
DAV:  12    -0.153367745112E+03   -0.94297E-03   -0.12395E-02  3020   0.886E-01    0.344E-01
DAV:  13    -0.153367697558E+03    0.47554E-04   -0.30822E-03  3122   0.628E-01    0.101E-01
DAV:  14    -0.153367971413E+03   -0.27385E-03   -0.11276E-03  3092   0.437E-01    0.200E-01
DAV:  15    -0.153367902860E+03    0.68553E-04   -0.61548E-04  3036   0.294E-01    0.423E-02
DAV:  16    -0.153367965181E+03   -0.62320E-04   -0.99306E-05  3396   0.126E-01    0.385E-02
DAV:  17    -0.153367996965E+03   -0.31784E-04   -0.35584E-05  3532   0.828E-02    0.176E-02
DAV:  18    -0.153368018258E+03   -0.21293E-04   -0.18096E-05  3244   0.437E-02    0.650E-03
DAV:  19    -0.153368051590E+03   -0.33332E-04   -0.12115E-05  2965   0.291E-02    0.987E-03
DAV:  20    -0.153368069149E+03   -0.17558E-04   -0.27767E-06  1924   0.190E-02    0.507E-03
DAV:  21    -0.153368087313E+03   -0.18164E-04   -0.22248E-06  1986   0.151E-02    0.278E-03
DAV:  22    -0.153368110995E+03   -0.23682E-04   -0.28749E-06  2061   0.140E-02    0.426E-03
DAV:  23    -0.153368124053E+03   -0.13059E-04   -0.10815E-06  1895   0.861E-03    0.277E-03
DAV:  24    -0.153368132203E+03   -0.81500E-05   -0.10076E-06  1719   0.828E-03    0.263E-03
DAV:  25    -0.153368141089E+03   -0.88860E-05   -0.77402E-07  1793   0.562E-03    0.397E-03
DAV:  26    -0.153368145438E+03   -0.43493E-05   -0.56106E-07  1636   0.405E-03    0.144E-03
DAV:  27    -0.153368146941E+03   -0.15021E-05   -0.19057E-07  1530   0.252E-03    0.125E-03
DAV:  28    -0.153368147923E+03   -0.98243E-06   -0.11273E-07  1492   0.214E-03
  16 F= -.15336815E+03 E0= -.15329167E+03  d E =-.167372E+01
       N       E                     dE             d eps       ncg     rms          rms(c)
DAV:   1    -0.153349258627E+03    0.18888E-01   -0.94070E+01  2631   0.205E+01    0.135E+00
DAV:   2    -0.153756526700E+03   -0.40727E+00   -0.38142E+00  3991   0.824E+00    0.842E+00
DAV:   3    -0.153632341381E+03    0.12419E+00   -0.24256E+00  3570   0.226E+00    0.534E+00
DAV:   4    -0.153704463603E+03   -0.72122E-01   -0.64885E-01  3354   0.183E+00    0.562E+00
DAV:   5    -0.153570049647E+03    0.13441E+00   -0.16599E-01  3199   0.393E+00    0.801E-01
DAV:   6    -0.153575132444E+03   -0.50828E-02   -0.19165E-02  4132   0.251E+00    0.776E-01
DAV:   7    -0.153577875105E+03   -0.27427E-02   -0.51550E-02  4108   0.328E+00    0.133E+00
DAV:   8    -0.153571318678E+03    0.65564E-02   -0.14516E-02  4714   0.195E+00    0.624E-01
DAV:   9    -0.153570612860E+03    0.70582E-03   -0.61536E-03  4108   0.494E-01    0.239E-01
DAV:  10    -0.153570908322E+03   -0.29546E-03   -0.18135E-03  3170   0.401E-01    0.159E-01
DAV:  11    -0.153570939825E+03   -0.31504E-04   -0.68051E-04  2914   0.362E-01    0.607E-02
DAV:  12    -0.153570957371E+03   -0.17545E-04   -0.14911E-04  3850   0.107E-01    0.404E-02
DAV:  13    -0.153570969130E+03   -0.11760E-04   -0.36198E-05  3124   0.621E-02    0.483E-02
DAV:  14    -0.153570972005E+03   -0.28746E-05   -0.15864E-05  3551   0.386E-02    0.269E-02
DAV:  15    -0.153570979162E+03   -0.71573E-05   -0.75529E-06  2855   0.288E-02    0.856E-03
DAV:  16    -0.153570986023E+03   -0.68606E-05   -0.27231E-06  1719   0.178E-02    0.397E-03
DAV:  17    -0.153570991676E+03   -0.56534E-05   -0.72794E-07  1717   0.851E-03    0.265E-03
DAV:  18    -0.153570997311E+03   -0.56344E-05   -0.65536E-07  1759   0.676E-03    0.182E-03
DAV:  19    -0.153571002333E+03   -0.50222E-05   -0.47093E-07  1696   0.549E-03    0.227E-03
DAV:  20    -0.153571005204E+03   -0.28713E-05   -0.25572E-07  1562   0.372E-03    0.768E-04
DAV:  21    -0.153571009689E+03   -0.44844E-05   -0.50817E-07  1808   0.261E-03    0.139E-03
DAV:  22    -0.153571011723E+03   -0.20344E-05   -0.20065E-07  1610   0.272E-03    0.571E-04
DAV:  23    -0.153571012779E+03   -0.10558E-05   -0.12461E-07  1512   0.212E-03    0.835E-04
DAV:  24    -0.153571013300E+03   -0.52107E-06   -0.92274E-08  1479   0.119E-03
  17 F= -.15357101E+03 E0= -.15349136E+03  d E =-.187658E+01
       N       E                     dE             d eps       ncg     rms          rms(c)
DAV:   1    -0.153290730009E+03    0.28028E+00   -0.60206E+01  2610   0.146E+01    0.297E+00
DAV:   2    -0.154484950924E+03   -0.11942E+01   -0.72569E+00  4207   0.890E+00    0.122E+01
DAV:   3    -0.153552131128E+03    0.93282E+00   -0.55411E+00  4266   0.518E+00    0.632E+00
DAV:   4    -0.153733397792E+03   -0.18127E+00   -0.35051E+00  3564   0.111E+01    0.102E+01
DAV:   5    -0.153484342768E+03    0.24906E+00   -0.12255E+00  4164   0.192E+00    0.452E+00
DAV:   6    -0.153412061051E+03    0.72282E-01   -0.99777E-02  3116   0.571E+00    0.269E+00
DAV:   7    -0.153393930692E+03    0.18130E-01   -0.11839E-01  4197   0.348E+00    0.999E-01
DAV:   8    -0.153394647965E+03   -0.71727E-03   -0.38871E-02  3384   0.467E+00    0.101E+00
DAV:   9    -0.153393220836E+03    0.14271E-02   -0.12509E-02  4006   0.145E+00    0.560E-01
DAV:  10    -0.153392357589E+03    0.86325E-03   -0.46141E-03  3572   0.723E-01    0.155E-01
DAV:  11    -0.153392463390E+03   -0.10580E-03   -0.12747E-03  3085   0.356E-01    0.602E-02
DAV:  12    -0.153392551154E+03   -0.87764E-04   -0.46708E-04  3088   0.265E-01    0.495E-02
DAV:  13    -0.153392578416E+03   -0.27262E-04   -0.14150E-04  3388   0.109E-01    0.386E-02
DAV:  14    -0.153392598725E+03   -0.20308E-04   -0.44715E-05  3408   0.627E-02    0.164E-02
DAV:  15    -0.153392618626E+03   -0.19901E-04   -0.11333E-05  3103   0.374E-02    0.913E-03
DAV:  16    -0.153392638633E+03   -0.20008E-04   -0.40651E-06  2344   0.238E-02    0.925E-03
DAV:  17    -0.153392654652E+03   -0.16019E-04   -0.22872E-06  2076   0.133E-02    0.767E-03
DAV:  18    -0.153392665622E+03   -0.10970E-04   -0.15390E-06  1831   0.132E-02    0.346E-03
DAV:  19    -0.153392676008E+03   -0.10386E-04   -0.87074E-07  1866   0.682E-03    0.295E-03
DAV:  20    -0.153392684763E+03   -0.87544E-05   -0.68894E-07  1754   0.588E-03    0.176E-03
DAV:  21    -0.153392691299E+03   -0.65362E-05   -0.50353E-07  1786   0.508E-03    0.183E-03
DAV:  22    -0.153392693916E+03   -0.26175E-05   -0.26564E-07  1580   0.394E-03    0.122E-03
DAV:  23    -0.153392696434E+03   -0.25179E-05   -0.21169E-07  1578   0.383E-03    0.116E-03
DAV:  24    -0.153392697590E+03   -0.11556E-05   -0.14498E-07  1522   0.206E-03    0.484E-04
DAV:  25    -0.153392698573E+03   -0.98365E-06   -0.91741E-08  1482   0.139E-03
  18 F= -.15339270E+03 E0= -.15331479E+03  d E =0.178315E+00
       N       E                     dE             d eps       ncg     rms          rms(c)
DAV:   1    -0.153654613528E+03   -0.26192E+00   -0.22768E+01  2610   0.900E+00    0.210E+00
DAV:   2    -0.155080149656E+03   -0.14255E+01   -0.11255E+01  4506   0.775E+00    0.210E+01
DAV:   3    -0.153587959883E+03    0.14922E+01   -0.92224E+00  4386   0.376E+00    0.204E+00
DAV:   4    -0.153748391285E+03   -0.16043E+00   -0.35250E-01  3160   0.109E+01    0.741E+00
DAV:   5    -0.153687749679E+03    0.60642E-01   -0.25746E-01  3900   0.994E-01    0.405E+00
DAV:   6    -0.153656839764E+03    0.30910E-01   -0.78552E-02  3123   0.470E+00    0.661E-01
DAV:   7    -0.153660844300E+03   -0.40045E-02   -0.29675E-02  3574   0.302E+00    0.460E-01
DAV:   8    -0.153660032414E+03    0.81189E-03   -0.16050E-02  3923   0.290E+00    0.332E-01
DAV:   9    -0.153659447888E+03    0.58453E-03   -0.37547E-03  4574   0.111E+00    0.229E-01
DAV:  10    -0.153659414497E+03    0.33391E-04   -0.94683E-04  3412   0.327E-01    0.176E-01
DAV:  11    -0.153659400926E+03    0.13570E-04   -0.49405E-04  3127   0.256E-01    0.103E-01
DAV:  12    -0.153659414627E+03   -0.13701E-04   -0.19633E-04  3322   0.123E-01    0.222E-02
DAV:  13    -0.153659447660E+03   -0.33033E-04   -0.49937E-05  3175   0.888E-02    0.282E-02
DAV:  14    -0.153659455754E+03   -0.80939E-05   -0.11798E-05  3255   0.353E-02    0.206E-02
DAV:  15    -0.153659469680E+03   -0.13926E-04   -0.60027E-06  2842   0.311E-02    0.111E-02
DAV:  16    -0.153659475783E+03   -0.61028E-05   -0.17255E-06  1823   0.144E-02    0.734E-03
DAV:  17    -0.153659484727E+03   -0.89449E-05   -0.18024E-06  1776   0.121E-02    0.188E-03
DAV:  18    -0.153659490589E+03   -0.58612E-05   -0.58275E-07  1759   0.562E-03    0.259E-03
DAV:  19    -0.153659499078E+03   -0.84895E-05   -0.97209E-07  1856   0.713E-03    0.289E-03
DAV:  20    -0.153659502796E+03   -0.37177E-05   -0.34428E-07  1610   0.496E-03    0.244E-03
DAV:  21    -0.153659505628E+03   -0.28319E-05   -0.29630E-07  1552   0.345E-03    0.120E-03
DAV:  22    -0.153659508140E+03   -0.25124E-05   -0.34257E-07  1632   0.244E-03    0.797E-04
DAV:  23    -0.153659509201E+03   -0.10614E-05   -0.13997E-07  1583   0.229E-03    0.897E-04
DAV:  24    -0.153659510139E+03   -0.93714E-06   -0.11229E-07  1496   0.173E-03
  19 F= -.15365951E+03 E0= -.15358057E+03  d E =-.884968E-01
       N       E                     dE             d eps       ncg     rms          rms(c)
DAV:   1    -0.153687932308E+03   -0.28423E-01   -0.33320E+01  2610   0.105E+01    0.167E+00
DAV:   2    -0.154475584662E+03   -0.78765E+00   -0.39797E+00  3882   0.341E+00    0.103E+01
DAV:   3    -0.153755527257E+03    0.72006E+00   -0.24760E+00  4085   0.429E+00    0.203E+00
DAV:   4    -0.153977846212E+03   -0.22232E+00   -0.52075E-01  3504   0.320E+00    0.968E+00
DAV:   5    -0.153756209829E+03    0.22164E+00   -0.63940E-01  4661   0.191E+00    0.188E+00
DAV:   6    -0.153760532476E+03   -0.43226E-02   -0.45335E-02  3172   0.318E+00    0.778E-01
DAV:   7    -0.153760810454E+03   -0.27798E-03   -0.27830E-02  4074   0.163E+00    0.589E-01
DAV:   8    -0.153761002448E+03   -0.19199E-03   -0.41919E-03  3508   0.174E+00    0.527E-01
DAV:   9    -0.153759660844E+03    0.13416E-02   -0.30458E-03  3838   0.758E-01    0.161E-01
DAV:  10    -0.153759898747E+03   -0.23790E-03   -0.11285E-03  3466   0.217E-01    0.814E-02
DAV:  11    -0.153759934298E+03   -0.35552E-04   -0.26600E-04  2983   0.172E-01    0.361E-02
DAV:  12    -0.153759940668E+03   -0.63694E-05   -0.64918E-05  3143   0.124E-01    0.121E-02
DAV:  13    -0.153759948952E+03   -0.82844E-05   -0.19682E-05  3927   0.455E-02    0.124E-02
DAV:  14    -0.153759954583E+03   -0.56306E-05   -0.33543E-06  2015   0.174E-02    0.412E-03
DAV:  15    -0.153759958720E+03   -0.41367E-05   -0.21764E-06  1767   0.198E-02    0.294E-03
DAV:  16    -0.153759964882E+03   -0.61621E-05   -0.10767E-06  1909   0.985E-03    0.343E-03
DAV:  17    -0.153759969171E+03   -0.42891E-05   -0.85492E-07  1655   0.614E-03    0.150E-03
DAV:  18    -0.153759971340E+03   -0.21696E-05   -0.39395E-07  1525   0.547E-03    0.130E-03
DAV:  19    -0.153759974805E+03   -0.34649E-05   -0.50695E-07  1688   0.373E-03    0.940E-04
DAV:  20    -0.153759977694E+03   -0.28883E-05   -0.27072E-07  1586   0.233E-03    0.613E-04
DAV:  21    -0.153759978781E+03   -0.10877E-05   -0.15170E-07  1554   0.282E-03    0.450E-04
DAV:  22    -0.153759980058E+03   -0.12771E-05   -0.14196E-07  1520   0.225E-03    0.317E-04
DAV:  23    -0.153759980595E+03   -0.53656E-06   -0.82439E-08  1503   0.135E-03
  20 F= -.15375998E+03 E0= -.15368291E+03  d E =-.100470E+00
       N       E                     dE             d eps       ncg     rms          rms(c)
DAV:   1    -0.153759996325E+03   -0.16267E-04   -0.17211E-02  2640   0.241E-01    0.391E-02
DAV:   2    -0.153760509130E+03   -0.51280E-03   -0.22984E-03  3925   0.910E-02    0.340E-01
DAV:   3    -0.153759949183E+03    0.55995E-03   -0.16725E-03  3920   0.938E-02    0.459E-02
DAV:   4    -0.153760183879E+03   -0.23470E-03   -0.15556E-04  3096   0.702E-02    0.293E-01
DAV:   5    -0.153759994580E+03    0.18930E-03   -0.14106E-04  2536   0.715E-02    0.316E-02
DAV:   6    -0.153760026639E+03   -0.32059E-04   -0.27959E-05  3000   0.101E-01    0.127E-02
DAV:   7    -0.153760028997E+03   -0.23589E-05   -0.54597E-06  2432   0.518E-02    0.482E-03
DAV:   8    -0.153760029469E+03   -0.47183E-06   -0.26862E-06  1994   0.381E-02
  21 F= -.15376003E+03 E0= -.15368299E+03  d E =-.100519E+00
       N       E                     dE             d eps       ncg     rms          rms(c)
DAV:   1    -0.153817087842E+03   -0.57059E-01   -0.36074E+00  2610   0.334E+00    0.516E-01
DAV:   2    -0.153911929306E+03   -0.94841E-01   -0.54951E-01  4275   0.143E+00    0.461E+00
DAV:   3    -0.153816811458E+03    0.95118E-01   -0.39371E-01  3939   0.147E+00    0.272E-01
DAV:   4    -0.153825449998E+03   -0.86385E-02   -0.66724E-03  3143   0.525E-01    0.922E-01
DAV:   5    -0.153824102328E+03    0.13477E-02   -0.21114E-03  2919   0.170E-01    0.456E-01
DAV:   6    -0.153823872106E+03    0.23022E-03   -0.79121E-04  3449   0.531E-01    0.168E-01
DAV:   7    -0.153823957718E+03   -0.85613E-04   -0.55139E-04  3476   0.668E-01    0.656E-02
DAV:   8    -0.153823939587E+03    0.18131E-04   -0.22378E-04  3956   0.466E-01    0.703E-02
DAV:   9    -0.153823913391E+03    0.26196E-04   -0.12733E-04  4592   0.128E-01    0.192E-02
DAV:  10    -0.153823926093E+03   -0.12702E-04   -0.18047E-05  3637   0.351E-02    0.115E-02
DAV:  11    -0.153823926881E+03   -0.78761E-06   -0.69700E-06  2906   0.354E-02
  22 F= -.15382393E+03 E0= -.15374791E+03  d E =-.638974E-01
       N       E                     dE             d eps       ncg     rms          rms(c)
DAV:   1    -0.153946538532E+03   -0.12261E+00   -0.32347E+01  2610   0.100E+01    0.149E+00
DAV:   2    -0.154641594911E+03   -0.69506E+00   -0.38470E+00  4301   0.440E+00    0.101E+01
DAV:   3    -0.154006852013E+03    0.63474E+00   -0.26873E+00  4123   0.469E+00    0.150E+00
DAV:   4    -0.154128212454E+03   -0.12136E+00   -0.22421E-01  3249   0.153E+00    0.649E+00
DAV:   5    -0.154014964737E+03    0.11325E+00   -0.23985E-01  3054   0.505E-01    0.140E+00
DAV:   6    -0.154019309740E+03   -0.43450E-02   -0.81163E-03  3228   0.598E-01    0.101E+00
DAV:   7    -0.154018954569E+03    0.35517E-03   -0.36352E-02  3569   0.865E-01    0.753E-01
DAV:   8    -0.154018047855E+03    0.90671E-03   -0.30581E-03  3276   0.135E+00    0.479E-01
DAV:   9    -0.154017350569E+03    0.69729E-03   -0.21034E-03  4322   0.731E-01    0.177E-01
DAV:  10    -0.154017310504E+03    0.40064E-04   -0.34963E-04  3698   0.521E-01    0.108E-01
DAV:  11    -0.154017277130E+03    0.33374E-04   -0.28746E-04  3652   0.182E-01    0.310E-02
DAV:  12    -0.154017301429E+03   -0.24298E-04   -0.46188E-05  3645   0.782E-02    0.177E-02
DAV:  13    -0.154017306579E+03   -0.51506E-05   -0.97261E-06  3439   0.453E-02    0.167E-02
DAV:  14    -0.154017306618E+03   -0.38708E-07   -0.11559E-05  2924   0.416E-02    0.566E-03
DAV:  15    -0.154017307270E+03   -0.65239E-06   -0.25890E-06  1642   0.170E-02
  23 F= -.15401731E+03 E0= -.15394484E+03  d E =-.257278E+00
       N       E                     dE             d eps       ncg     rms          rms(c)
DAV:   1    -0.154078915756E+03   -0.61609E-01   -0.12861E+02  2610   0.201E+01    0.280E+00
DAV:   2    -0.155918080140E+03   -0.18392E+01   -0.11846E+01  4215   0.914E+00    0.160E+01
DAV:   3    -0.154476086941E+03    0.14420E+01   -0.13394E+01  4210   0.928E+00    0.373E+00
DAV:   4    -0.154501064416E+03   -0.24977E-01   -0.99258E-01  3670   0.313E+00    0.408E+00
DAV:   5    -0.154454647412E+03    0.46417E-01   -0.77997E-02  2938   0.940E-01    0.318E+00
DAV:   6    -0.154430582500E+03    0.24065E-01   -0.10549E-02  2874   0.305E-01    0.249E+00
DAV:   7    -0.154439064400E+03   -0.84819E-02   -0.19641E-01  4046   0.141E+00    0.224E+00
DAV:   8    -0.154436790852E+03    0.22735E-02   -0.18683E-02  4211   0.134E+00    0.138E+00
DAV:   9    -0.154429816283E+03    0.69746E-02   -0.12667E-02  3780   0.777E-01    0.568E-01
DAV:  10    -0.154430246981E+03   -0.43070E-03   -0.30050E-03  4133   0.326E-01    0.261E-01
DAV:  11    -0.154430128387E+03    0.11859E-03   -0.70710E-04  3338   0.256E-01    0.168E-01
DAV:  12    -0.154430049158E+03    0.79229E-04   -0.22324E-04  3260   0.210E-01    0.570E-02
DAV:  13    -0.154430083604E+03   -0.34445E-04   -0.14193E-04  3264   0.133E-01    0.306E-02
DAV:  14    -0.154430092307E+03   -0.87033E-05   -0.52884E-05  3103   0.504E-02    0.228E-02
DAV:  15    -0.154430093834E+03   -0.15271E-05   -0.92924E-06  2949   0.295E-02    0.150E-02
DAV:  16    -0.154430093923E+03   -0.88825E-07   -0.52186E-06  1856   0.323E-02
  24 F= -.15443009E+03 E0= -.15436701E+03  d E =-.670064E+00
       N       E                     dE             d eps       ncg     rms          rms(c)
DAV:   1    -0.153184790553E+03    0.12453E+01   -0.50679E+02  2610   0.422E+01    0.777E+00
DAV:   2    -0.161682112825E+03   -0.84973E+01   -0.50790E+01  4239   0.242E+01    0.216E+01
DAV:   3    -0.155419110881E+03    0.62630E+01   -0.32697E+00  4700   0.279E+01    0.508E+00
DAV:   4    -0.156077050433E+03   -0.65794E+00   -0.83785E+00  4256   0.138E+01    0.932E+00
DAV:   5    -0.155707243124E+03    0.36981E+00   -0.49153E-01  3303   0.333E+00    0.874E+00
DAV:   6    -0.155636408227E+03    0.70835E-01   -0.31435E+00  3728   0.579E+00    0.899E+00
DAV:   7    -0.156554220120E+03   -0.91781E+00   -0.14171E+00  3811   0.108E+01    0.143E+01
DAV:   8    -0.156441522116E+03    0.11270E+00   -0.12757E-01  4284   0.272E+00    0.130E+01
DAV:   9    -0.155927871515E+03    0.51365E+00   -0.75425E-02  3551   0.583E+00    0.125E+01
DAV:  10    -0.155271723326E+03    0.65615E+00   -0.33429E+00  4104   0.288E+00    0.176E+00
DAV:  11    -0.155398416571E+03   -0.12669E+00   -0.77366E-02  3701   0.116E+00    0.333E+00
DAV:  12    -0.155389516464E+03    0.89001E-02   -0.12386E-02  3460   0.675E-01    0.267E+00
DAV:  13    -0.155376132270E+03    0.13384E-01   -0.26509E-02  3380   0.660E-01    0.133E+00
DAV:  14    -0.155379356283E+03   -0.32240E-02   -0.10752E-02  3959   0.280E-01    0.516E-01
DAV:  15    -0.155383394399E+03   -0.40381E-02   -0.20940E-03  4029   0.573E-01    0.293E-01
DAV:  16    -0.155384424618E+03   -0.10302E-02   -0.48570E-03  3362   0.312E-01    0.314E-01
DAV:  17    -0.155384605350E+03   -0.18073E-03   -0.69771E-04  3108   0.221E-01    0.350E-01
DAV:  18    -0.155384272254E+03    0.33310E-03   -0.25876E-04  3254   0.108E-01    0.255E-01
DAV:  19    -0.155384129665E+03    0.14259E-03   -0.18215E-04  3272   0.838E-02    0.165E-01
DAV:  20    -0.155384120613E+03    0.90518E-05   -0.40546E-05  3792   0.532E-02    0.127E-01
DAV:  21    -0.155384077793E+03    0.42821E-04   -0.98708E-05  2662   0.338E-02    0.490E-02
DAV:  22    -0.155384099833E+03   -0.22040E-04   -0.11484E-05  3180   0.210E-02    0.418E-02
DAV:  23    -0.155384113685E+03   -0.13852E-04   -0.33521E-06  2037   0.132E-02    0.528E-02
DAV:  24    -0.155384108411E+03    0.52744E-05   -0.16540E-05  2094   0.109E-02    0.202E-02
DAV:  25    -0.155384112561E+03   -0.41499E-05   -0.73791E-06  2124   0.896E-03    0.290E-03
DAV:  26    -0.155384115648E+03   -0.30870E-05   -0.79482E-07  1754   0.612E-03    0.174E-03
DAV:  27    -0.155384118093E+03   -0.24456E-05   -0.42570E-07  1576   0.344E-03    0.103E-03
DAV:  28    -0.155384119478E+03   -0.13846E-05   -0.53154E-07  1490   0.416E-03    0.467E-03
DAV:  29    -0.155384120696E+03   -0.12183E-05   -0.25640E-07  1578   0.275E-03    0.679E-03
DAV:  30    -0.155384121422E+03   -0.72573E-06   -0.15750E-07  1466   0.229E-03
  25 F= -.15538412E+03 E0= -.15532408E+03  d E =-.162409E+01
       N       E                     dE             d eps       ncg     rms          rms(c)
DAV:   1    -0.146706870605E+03    0.86773E+01   -0.20064E+03  2882   0.945E+01    0.255E+01
DAV:   2    -0.183113371400E+03   -0.36407E+02   -0.27710E+02  4515   0.756E+01    0.338E+01
DAV:   3    -0.160699026410E+03    0.22414E+02   -0.38202E+01  4479   0.908E+01    0.180E+01
DAV:   4    -0.158271389845E+03    0.24276E+01   -0.10694E+01  4268   0.628E+01    0.134E+01
DAV:   5    -0.158624033774E+03   -0.35264E+00   -0.17349E+01  4260   0.317E+01    0.117E+01
DAV:   6    -0.160158289775E+03   -0.15343E+01   -0.45595E+01  3716   0.118E+01    0.140E+01
DAV:   7    -0.160881664544E+03   -0.72337E+00   -0.13485E+00  3668   0.134E+01    0.129E+01
DAV:   8    -0.160140474997E+03    0.74119E+00   -0.71306E-01  3407   0.111E+01    0.111E+01
DAV:   9    -0.158126697693E+03    0.20138E+01   -0.74103E-01  3578   0.682E+00    0.871E+00
DAV:  10    -0.158075523218E+03    0.51174E-01   -0.43101E+00  4106   0.355E+00    0.107E+01
DAV:  11    -0.157709869490E+03    0.36565E+00   -0.31397E+00  3543   0.211E+00    0.167E+00
DAV:  12    -0.157741938079E+03   -0.32069E-01   -0.23589E-02  3076   0.602E-01    0.160E+00
DAV:  13    -0.157798120837E+03   -0.56183E-01   -0.38197E-01  3204   0.848E-01    0.479E+00
DAV:  14    -0.157806689721E+03   -0.85689E-02   -0.20426E-02  3460   0.155E+00    0.532E+00
DAV:  15    -0.157772687864E+03    0.34002E-01   -0.68273E-02  3375   0.128E+00    0.382E+00
DAV:  16    -0.157764229909E+03    0.84580E-02   -0.10027E-01  3444   0.959E-01    0.178E+00
DAV:  17    -0.157776198264E+03   -0.11968E-01   -0.29389E-02  3722   0.101E+00    0.245E+00
DAV:  18    -0.157760205645E+03    0.15993E-01   -0.24671E-02  3012   0.817E-01    0.138E+00
DAV:  19    -0.157757031717E+03    0.31739E-02   -0.32447E-02  3367   0.610E-01    0.681E-01
DAV:  20    -0.157755538570E+03    0.14931E-02   -0.88379E-03  3151   0.560E-01    0.472E-01
DAV:  21    -0.157754229613E+03    0.13090E-02   -0.36429E-03  3087   0.521E-01    0.379E-01
DAV:  22    -0.157753625716E+03    0.60390E-03   -0.28416E-03  3116   0.336E-01    0.179E-01
DAV:  23    -0.157753687809E+03   -0.62093E-04   -0.59041E-04  3370   0.164E-01    0.181E-01
DAV:  24    -0.157753641930E+03    0.45879E-04   -0.73542E-04  3146   0.172E-01    0.666E-02
DAV:  25    -0.157753681626E+03   -0.39696E-04   -0.35364E-04  3276   0.119E-01    0.459E-02
DAV:  26    -0.157753750419E+03   -0.68792E-04   -0.65164E-05  2860   0.666E-02    0.395E-02
DAV:  27    -0.157753777401E+03   -0.26982E-04   -0.10464E-05  3140   0.301E-02    0.388E-02
DAV:  28    -0.157753795696E+03   -0.18295E-04   -0.37769E-05  3148   0.355E-02    0.535E-02
DAV:  29    -0.157753794583E+03    0.11125E-05   -0.33410E-05  3252   0.286E-02    0.182E-02
DAV:  30    -0.157753809373E+03   -0.14789E-04   -0.92403E-06  2572   0.177E-02    0.100E-02
DAV:  31    -0.157753826836E+03   -0.17463E-04   -0.20871E-05  2620   0.187E-02    0.269E-02
DAV:  32    -0.157753835280E+03   -0.84442E-05   -0.66623E-06  2396   0.117E-02    0.155E-02
DAV:  33    -0.157753838676E+03   -0.33954E-05   -0.57907E-06  1892   0.769E-03    0.474E-03
DAV:  34    -0.157753844471E+03   -0.57953E-05   -0.28305E-06  1748   0.607E-03    0.149E-02
DAV:  35    -0.157753845427E+03   -0.95624E-06   -0.25336E-06  1692   0.420E-03
  26 F= -.15775385E+03 E0= -.15768960E+03  d E =-.399382E+01
       N       E                     dE             d eps       ncg     rms          rms(c)
DAV:   1     0.206543120491E+04    0.22232E+04   -0.78689E+03  3666   0.259E+02    0.292E+01
DAV:   2     0.197344812270E+04   -0.91983E+02   -0.90470E+02  4474   0.171E+02    0.611E+01
DAV:   3     0.200646911033E+04    0.33021E+02   -0.26745E+02  4364   0.166E+02    0.295E+01
DAV:   4     0.201816051926E+04    0.11691E+02   -0.51444E+01  4612   0.694E+01    0.241E+01
DAV:   5     0.201868340609E+04    0.52289E+00   -0.18691E+01  3364   0.420E+01    0.211E+01
DAV:   6     0.201985220996E+04    0.11688E+01   -0.10629E+01  3084   0.455E+01    0.157E+01
DAV:   7     0.201911030871E+04   -0.74190E+00   -0.17004E+01  3412   0.756E+01    0.161E+01
DAV:   8     0.202100206827E+04    0.18918E+01   -0.60947E+00  4268   0.236E+01    0.885E+00
DAV:   9     0.202203395216E+04    0.10319E+01   -0.24635E+00  3180   0.148E+01    0.565E+00
DAV:  10     0.202226479909E+04    0.23085E+00   -0.68387E-01  3956   0.836E+00    0.414E+00
DAV:  11     0.202259051673E+04    0.32572E+00   -0.51852E-01  4444   0.854E+00    0.206E+00
DAV:  12     0.202265925471E+04    0.68738E-01   -0.24846E-01  4508   0.575E+00    0.119E+00
DAV:  13     0.202268206960E+04    0.22815E-01   -0.13088E-01  3764   0.292E+00    0.770E-01
DAV:  14     0.202269881699E+04    0.16747E-01   -0.21997E-02  4500   0.200E+00    0.510E-01
DAV:  15     0.202271029988E+04    0.11483E-01   -0.22863E-02  4140   0.115E+00    0.314E-01
DAV:  16     0.202271396297E+04    0.36631E-02   -0.13429E-02  3900   0.808E-01    0.174E-01
DAV:  17     0.202271435890E+04    0.39592E-03   -0.85708E-03  3708   0.618E-01    0.107E-01
DAV:  18     0.202271377344E+04   -0.58546E-03   -0.34750E-03  3156   0.533E-01    0.773E-02
DAV:  19     0.202271309475E+04   -0.67869E-03   -0.12159E-03  3068   0.380E-01    0.529E-02
DAV:  20     0.202271262813E+04   -0.46662E-03   -0.54198E-04  3532   0.204E-01    0.333E-02
DAV:  21     0.202271248610E+04   -0.14203E-03   -0.11459E-04  3540   0.136E-01    0.236E-02
DAV:  22     0.202271231021E+04   -0.17589E-03   -0.84867E-05  3332   0.787E-02    0.146E-02
DAV:  23     0.202271197795E+04   -0.33227E-03   -0.11676E-04  3842   0.795E-02    0.119E-02
DAV:  24     0.202271186570E+04   -0.11225E-03   -0.33829E-05  3932   0.628E-02    0.693E-03
DAV:  25     0.202271175584E+04   -0.10985E-03   -0.19936E-05  3330   0.361E-02    0.628E-03
DAV:  26     0.202271166305E+04   -0.92788E-04   -0.17156E-05  2634   0.352E-02    0.398E-03
DAV:  27     0.202271163512E+04   -0.27936E-04   -0.79056E-06  3098   0.207E-02    0.291E-03
DAV:  28     0.202271162121E+04   -0.13913E-04   -0.17011E-06  1999   0.129E-02    0.256E-03
DAV:  29     0.202271160975E+04   -0.11459E-04   -0.17346E-06  2064   0.129E-02    0.179E-03
DAV:  30     0.202271160442E+04   -0.53279E-05   -0.78178E-07  1898   0.646E-03    0.974E-04
DAV:  31     0.202271160180E+04   -0.26186E-05   -0.40215E-07  1732   0.502E-03    0.955E-04
DAV:  32     0.202271159940E+04   -0.23961E-05   -0.28820E-07  1719   0.416E-03    0.634E-04
DAV:  33     0.202271159719E+04   -0.22134E-05   -0.26798E-07  1724   0.272E-03    0.414E-04
DAV:  34     0.202271159614E+04   -0.10470E-05   -0.12355E-07  1644   0.252E-03    0.331E-04
DAV:  35     0.202271159509E+04   -0.10513E-05   -0.89256E-08  1684   0.170E-03    0.210E-04
DAV:  36     0.202271159417E+04   -0.91974E-06   -0.59820E-08  1612   0.143E-03
  27 F= 0.20227116E+04 E0= 0.20227458E+04  d E =0.217647E+04
       N       E                     dE             d eps       ncg     rms          rms(c)
DAV:   1    -0.148406464476E+03   -0.21711E+04   -0.77667E+03  3386   0.240E+02    0.350E+01
DAV:   2    -0.162595326749E+03   -0.14189E+02   -0.51306E+02  3738   0.102E+02    0.242E+01
DAV:   3    -0.162972191103E+03   -0.37686E+00   -0.96296E+01  3276   0.111E+02    0.202E+01
DAV:   4    -0.163578605706E+03   -0.60641E+00   -0.16649E+01  3772   0.644E+01    0.178E+01
DAV:   5    -0.159078723317E+03    0.44999E+01   -0.79193E+00  3471   0.648E+01    0.140E+01
DAV:   6    -0.160182125502E+03   -0.11034E+01   -0.20276E+01  3948   0.664E+01    0.144E+01
DAV:   7    -0.157983908726E+03    0.21982E+01   -0.13607E+01  4020   0.446E+01    0.850E+00
DAV:   8    -0.159327564596E+03   -0.13437E+01   -0.11243E+01  3380   0.148E+01    0.128E+01
DAV:   9    -0.157786749737E+03    0.15408E+01   -0.68245E+00  3436   0.892E+00    0.502E+00
DAV:  10    -0.157766938463E+03    0.19811E-01   -0.55660E-01  3212   0.536E+00    0.222E+00
DAV:  11    -0.157756040595E+03    0.10898E-01   -0.48662E-02  3420   0.242E+00    0.137E+00
DAV:  12    -0.157753415304E+03    0.26253E-02   -0.10533E-01  4804   0.252E+00    0.119E+00
DAV:  13    -0.157752807740E+03    0.60756E-03   -0.29134E-02  3892   0.129E+00    0.319E-01
DAV:  14    -0.157755053781E+03   -0.22460E-02   -0.14520E-02  3332   0.108E+00    0.100E+00
DAV:  15    -0.157766725403E+03   -0.11672E-01   -0.13817E-01  3804   0.722E-01    0.202E+00
DAV:  16    -0.157750794989E+03    0.15930E-01   -0.27097E-02  3754   0.323E-01    0.658E-01
DAV:  17    -0.157752441863E+03   -0.16469E-02   -0.22395E-02  3692   0.406E-01    0.569E-01
DAV:  18    -0.157752420119E+03    0.21744E-04   -0.24319E-03  3652   0.173E-01    0.245E-01
DAV:  19    -0.157753000135E+03   -0.58002E-03   -0.39079E-03  3860   0.178E-01    0.265E-01
DAV:  20    -0.157753382856E+03   -0.38272E-03   -0.22356E-04  3628   0.971E-02    0.243E-01
DAV:  21    -0.157753537645E+03   -0.15479E-03   -0.17863E-03  3676   0.102E-01    0.103E-01
DAV:  22    -0.157753798891E+03   -0.26125E-03   -0.14513E-04  3716   0.544E-02    0.342E-02
DAV:  23    -0.157753933705E+03   -0.13481E-03   -0.18770E-05  3516   0.371E-02    0.167E-02
DAV:  24    -0.157754054235E+03   -0.12053E-03   -0.65925E-06  2524   0.224E-02    0.226E-02
DAV:  25    -0.157754142946E+03   -0.88711E-04   -0.15568E-05  2420   0.177E-02    0.520E-03
DAV:  26    -0.157754170562E+03   -0.27616E-04   -0.38960E-06  2188   0.134E-02    0.161E-02
DAV:  27    -0.157754197539E+03   -0.26978E-04   -0.23154E-06  1988   0.684E-03    0.924E-03
DAV:  28    -0.157754211752E+03   -0.14212E-04   -0.14936E-06  1852   0.701E-03    0.223E-03
DAV:  29    -0.157754219363E+03   -0.76113E-05   -0.49750E-07  1716   0.540E-03    0.383E-03
DAV:  30    -0.157754225100E+03   -0.57371E-05   -0.51918E-07  1692   0.376E-03    0.608E-04
DAV:  31    -0.157754227809E+03   -0.27088E-05   -0.22794E-07  1684   0.257E-03    0.150E-03
DAV:  32    -0.157754230467E+03   -0.26579E-05   -0.14045E-07  1612   0.217E-03    0.963E-04
DAV:  33    -0.157754231426E+03   -0.95909E-06   -0.66379E-08  1532   0.150E-03
  28 F= -.15775423E+03 E0= -.15768999E+03  d E =-.399420E+01
       N       E                     dE             d eps       ncg     rms          rms(c)
DAV:   1    -0.158010497614E+03   -0.25627E+00   -0.15449E+02  2610   0.217E+01    0.111E+01
DAV:   2    -0.174431418315E+03   -0.16421E+02   -0.23044E+02  4828   0.371E+01    0.198E+01
DAV:   3    -0.163443016587E+03    0.10988E+02   -0.76313E+00  4479   0.485E+01    0.149E+01
DAV:   4    -0.161433155970E+03    0.20099E+01   -0.19680E+00  4028   0.255E+01    0.131E+01
DAV:   5    -0.157799720787E+03    0.36334E+01   -0.22788E+00  4148   0.882E+00    0.742E+00
DAV:   6    -0.157767884559E+03    0.31836E-01   -0.21293E+00  3583   0.279E+00    0.135E+00
DAV:   7    -0.157823018981E+03   -0.55134E-01   -0.35221E-01  4100   0.127E+00    0.380E+00
DAV:   8    -0.157774095754E+03    0.48923E-01   -0.16461E-01  3967   0.997E-01    0.700E-01
DAV:   9    -0.157799137344E+03   -0.25042E-01   -0.37357E-02  4652   0.140E+00    0.212E+00
DAV:  10    -0.157790363324E+03    0.87740E-02   -0.98576E-03  2972   0.124E+00    0.178E+00
DAV:  11    -0.157784137358E+03    0.62260E-02   -0.11567E-02  3036   0.402E-01    0.947E-01
DAV:  12    -0.157784454297E+03   -0.31694E-03   -0.20819E-02  2980   0.307E-01    0.207E-01
DAV:  13    -0.157786768810E+03   -0.23145E-02   -0.12767E-03  3541   0.215E-01    0.335E-02
DAV:  14    -0.157786990694E+03   -0.22188E-03   -0.81271E-04  3132   0.128E-01    0.214E-01
DAV:  15    -0.157786966785E+03    0.23909E-04   -0.28124E-03  3133   0.995E-02    0.203E-01
DAV:  16    -0.157786976042E+03   -0.92573E-05   -0.15451E-04  3565   0.471E-02    0.125E-01
DAV:  17    -0.157786982494E+03   -0.64521E-05   -0.74576E-04  3236   0.396E-02    0.929E-02
DAV:  18    -0.157787019557E+03   -0.37063E-04   -0.72451E-05  3021   0.291E-02    0.363E-02
DAV:  19    -0.157787050469E+03   -0.30912E-04   -0.11143E-05  2050   0.163E-02    0.130E-02
DAV:  20    -0.157787077856E+03   -0.27387E-04   -0.57185E-06  2090   0.143E-02    0.269E-03
DAV:  21    -0.157787099350E+03   -0.21494E-04   -0.18468E-05  2127   0.131E-02    0.311E-02
DAV:  22    -0.157787104179E+03   -0.48289E-05   -0.11142E-05  1874   0.768E-03    0.669E-03
DAV:  23    -0.157787110803E+03   -0.66240E-05   -0.32110E-06  1839   0.554E-03    0.568E-03
DAV:  24    -0.157787113138E+03   -0.23355E-05   -0.52032E-07  1684   0.510E-03    0.499E-03
DAV:  25    -0.157787115446E+03   -0.23077E-05   -0.67113E-07  1554   0.276E-03    0.102E-02
DAV:  26    -0.157787116457E+03   -0.10110E-05   -0.43408E-07  1570   0.273E-03    0.626E-03
DAV:  27    -0.157787117045E+03   -0.58761E-06   -0.78990E-07  1468   0.192E-03
  29 F= -.15778712E+03 E0= -.15772048E+03  d E =-.402709E+01
       N       E                     dE             d eps       ncg     rms          rms(c)
DAV:   1    -0.157978682196E+03   -0.19157E+00   -0.49463E+01  2610   0.117E+01    0.677E+00
DAV:   2    -0.168600436171E+03   -0.10622E+02   -0.11163E+02  4861   0.234E+01    0.168E+01
DAV:   3    -0.160500529778E+03    0.80999E+01   -0.31444E+00  4306   0.289E+01    0.138E+01
DAV:   4    -0.159106535705E+03    0.13940E+01   -0.11501E+00  4378   0.123E+01    0.127E+01
DAV:   5    -0.158493775594E+03    0.61276E+00   -0.19369E+01  4226   0.490E+00    0.906E+00
DAV:   6    -0.158435728756E+03    0.58047E-01   -0.31220E-01  3612   0.213E+00    0.924E+00
DAV:   7    -0.158024856831E+03    0.41087E+00   -0.23545E+00  3549   0.322E+00    0.828E+00
DAV:   8    -0.157854817195E+03    0.17004E+00   -0.11309E+00  3739   0.175E+00    0.148E+00
DAV:   9    -0.157868810395E+03   -0.13993E-01   -0.86356E-03  3498   0.295E-01    0.145E+00
DAV:  10    -0.157937144098E+03   -0.68334E-01   -0.25714E-01  3348   0.614E-01    0.510E+00
DAV:  11    -0.157866851193E+03    0.70293E-01   -0.20240E-01  4653   0.825E-01    0.202E+00
DAV:  12    -0.157880010575E+03   -0.13159E-01   -0.46194E-03  3804   0.368E-01    0.235E+00
DAV:  13    -0.157880450248E+03   -0.43967E-03   -0.12849E-03  3346   0.157E-01    0.251E+00
DAV:  14    -0.157871131957E+03    0.93183E-02   -0.82928E-03  4437   0.474E-01    0.194E+00
DAV:  15    -0.157930469333E+03   -0.59337E-01   -0.16686E-01  4682   0.193E+00    0.446E+00
DAV:  16    -0.157875703186E+03    0.54766E-01   -0.56276E-01  4275   0.106E+00    0.152E+00
DAV:  17    -0.157901026020E+03   -0.25323E-01   -0.15507E-02  3475   0.576E-01    0.189E+00
DAV:  18    -0.157893104427E+03    0.79216E-02   -0.13842E-02  3178   0.307E-01    0.114E+00
DAV:  19    -0.157891582187E+03    0.15222E-02   -0.14163E-03  3799   0.139E-01    0.951E-01
DAV:  20    -0.157891758101E+03   -0.17591E-03   -0.85432E-03  3821   0.185E-01    0.143E+00
DAV:  21    -0.157886810434E+03    0.49477E-02   -0.32551E-03  3687   0.155E-01    0.105E+00
DAV:  22    -0.157883102136E+03    0.37083E-02   -0.51167E-03  4269   0.212E-01    0.666E-01
DAV:  23    -0.157881441128E+03    0.16610E-02   -0.16602E-03  4351   0.203E-01    0.646E-01
DAV:  24    -0.157880031451E+03    0.14097E-02   -0.18751E-03  4029   0.193E-01    0.722E-01
DAV:  25    -0.157877592817E+03    0.24386E-02   -0.30298E-03  3906   0.179E-01    0.398E-01
DAV:  26    -0.157876321916E+03    0.12709E-02   -0.17758E-03  3874   0.181E-01    0.239E-01
DAV:  27    -0.157875982708E+03    0.33921E-03   -0.68901E-04  3687   0.100E-01    0.202E-01
DAV:  28    -0.157875797714E+03    0.18499E-03   -0.20665E-04  3964   0.621E-02    0.202E-01
DAV:  29    -0.157875617828E+03    0.17989E-03   -0.20807E-04  3866   0.567E-02    0.136E-01
DAV:  30    -0.157875517747E+03    0.10008E-03   -0.17120E-04  4170   0.598E-02    0.957E-02
DAV:  31    -0.157875488763E+03    0.28983E-04   -0.15765E-04  3850   0.560E-02    0.456E-02
DAV:  32    -0.157875508910E+03   -0.20147E-04   -0.86417E-05  3220   0.287E-02    0.116E-02
DAV:  33    -0.157875519908E+03   -0.10998E-04   -0.90164E-06  2872   0.153E-02    0.736E-03
DAV:  34    -0.157875520898E+03   -0.99064E-06   -0.12893E-06  1607   0.679E-03
  30 F= -.15787552E+03 E0= -.15781022E+03  d E =-.411549E+01
       N       E                     dE             d eps       ncg     rms          rms(c)
DAV:   1    -0.157892387666E+03   -0.16868E-01   -0.41175E+00  2610   0.343E+00    0.223E+00
DAV:   2    -0.160174314619E+03   -0.22819E+01   -0.14703E+01  4879   0.755E+00    0.111E+01
DAV:   3    -0.157994284320E+03    0.21800E+01   -0.44556E-01  4703   0.918E+00    0.708E+00
DAV:   4    -0.157867666049E+03    0.12662E+00   -0.41943E-01  4143   0.318E+00    0.282E+00
DAV:   5    -0.157867822761E+03   -0.15671E-03   -0.12739E-01  4236   0.181E+00    0.333E-01
DAV:   6    -0.157890009001E+03   -0.22186E-01   -0.29774E-02  3727   0.772E-01    0.135E+00
DAV:   7    -0.157883886799E+03    0.61222E-02   -0.16494E-02  3127   0.849E-01    0.424E-01
DAV:   8    -0.157886902775E+03   -0.30160E-02   -0.25478E-02  3447   0.422E-01    0.845E-01
DAV:   9    -0.157885729298E+03    0.11735E-02   -0.13368E-03  3506   0.171E-01    0.646E-01
DAV:  10    -0.157884497901E+03    0.12314E-02   -0.18824E-03  3276   0.122E-01    0.293E-01
DAV:  11    -0.157884472764E+03    0.25137E-04   -0.12293E-03  3823   0.958E-02    0.273E-02
DAV:  12    -0.157884700723E+03   -0.22796E-03   -0.34630E-04  3226   0.681E-02    0.118E-01
DAV:  13    -0.157884672189E+03    0.28534E-04   -0.15068E-04  3316   0.368E-02    0.294E-02
DAV:  14    -0.157884677415E+03   -0.52253E-05   -0.13242E-05  2202   0.223E-02    0.482E-03
DAV:  15    -0.157884684168E+03   -0.67530E-05   -0.22907E-06  1943   0.143E-02    0.109E-02
DAV:  16    -0.157884688726E+03   -0.45584E-05   -0.11978E-06  1812   0.614E-03    0.661E-03
DAV:  17    -0.157884691358E+03   -0.26322E-05   -0.18253E-06  1708   0.667E-03    0.223E-03
DAV:  18    -0.157884694018E+03   -0.26596E-05   -0.58784E-07  1732   0.560E-03    0.419E-03
[...]
DAV:   5    -0.161525788814E+03   -0.20351E-03   -0.23427E-02  3291   0.207E+00    0.286E-01
DAV:   6    -0.161525907399E+03   -0.11859E-03   -0.49477E-03  3995   0.144E+00    0.153E-01
DAV:   7    -0.161526411975E+03   -0.50458E-03   -0.31293E-03  3587   0.901E-01    0.126E-01
DAV:   8    -0.161526280958E+03    0.13102E-03   -0.13388E-03  3022   0.651E-01    0.374E-02
DAV:   9    -0.161526322743E+03   -0.41785E-04   -0.54859E-04  3356   0.163E-01    0.462E-02
DAV:  10    -0.161526319138E+03    0.36057E-05   -0.12638E-04  2970   0.963E-02    0.203E-02
DAV:  11    -0.161526317827E+03    0.13107E-05   -0.30740E-05  3172   0.587E-02    0.102E-02
DAV:  12    -0.161526318288E+03   -0.46112E-06   -0.17029E-05  3143   0.278E-02    0.699E-03
DAV:  13    -0.161526318263E+03    0.25437E-07   -0.43074E-06  1740   0.172E-02
 253 F= -.16152632E+03 E0= -.16149184E+03  d E =-.858414E-02
       N       E                     dE             d eps       ncg     rms          rms(c)
DAV:   1    -0.161525423921E+03    0.89437E-03   -0.99451E-01  2610   0.183E+00    0.340E-01
DAV:   2    -0.161546324602E+03   -0.20901E-01   -0.14713E-01  4788   0.855E-01    0.188E+00
DAV:   3    -0.161526201381E+03    0.20123E-01   -0.17100E-01  3973   0.111E+00    0.442E-01
DAV:   4    -0.161527718552E+03   -0.15172E-02   -0.71431E-03  4105   0.647E-01    0.135E-01
DAV:   5    -0.161527943553E+03   -0.22500E-03   -0.14404E-03  3250   0.623E-01    0.123E-01
DAV:   6    -0.161527962832E+03   -0.19279E-04   -0.70002E-04  3174   0.562E-01    0.416E-02
DAV:   7    -0.161528032642E+03   -0.69811E-04   -0.24604E-04  3798   0.337E-01    0.300E-02
DAV:   8    -0.161528022263E+03    0.10379E-04   -0.10033E-04  3195   0.226E-01    0.142E-02
DAV:   9    -0.161528024729E+03   -0.24659E-05   -0.43265E-05  3500   0.664E-02    0.829E-03
DAV:  10    -0.161528025665E+03   -0.93592E-06   -0.14030E-05  2839   0.383E-02    0.520E-03
DAV:  11    -0.161528026140E+03   -0.47503E-06   -0.42250E-06  2516   0.212E-02
 254 F= -.16152803E+03 E0= -.16149357E+03  d E =-.170788E-02
       N       E                     dE             d eps       ncg     rms          rms(c)
DAV:   1    -0.161528023117E+03    0.25475E-05   -0.44743E-03  2635   0.124E-01    0.227E-02
DAV:   2    -0.161528102707E+03   -0.79590E-04   -0.59874E-04  4507   0.492E-02    0.110E-01
DAV:   3    -0.161528026117E+03    0.76590E-04   -0.58910E-04  3777   0.709E-02    0.314E-02
DAV:   4    -0.161528033295E+03   -0.71783E-05   -0.38109E-05  2516   0.488E-02    0.858E-03
DAV:   5    -0.161528035090E+03   -0.17943E-05   -0.64537E-06  2524   0.432E-02    0.764E-03
DAV:   6    -0.161528035831E+03   -0.74157E-06   -0.27820E-06  1956   0.378E-02
 255 F= -.16152804E+03 E0= -.16149359E+03  d E =-.171757E-02
       N       E                     dE             d eps       ncg     rms          rms(c)
DAV:   1    -0.161528576431E+03   -0.54134E-03   -0.41110E-01  2610   0.118E+00    0.198E-01
DAV:   2    -0.161532314306E+03   -0.37379E-02   -0.31664E-02  4677   0.492E-01    0.693E-01
DAV:   3    -0.161530276050E+03    0.20383E-02   -0.37434E-02  3917   0.587E-01    0.413E-01
DAV:   4    -0.161529449151E+03    0.82690E-03   -0.42611E-03  3543   0.397E-01    0.108E-01
DAV:   5    -0.161529590267E+03   -0.14112E-03   -0.49425E-04  3181   0.329E-01    0.874E-02
DAV:   6    -0.161529640739E+03   -0.50472E-04   -0.33790E-04  3296   0.323E-01    0.251E-02
DAV:   7    -0.161529673967E+03   -0.33227E-04   -0.10835E-04  3840   0.212E-01    0.192E-02
DAV:   8    -0.161529669115E+03    0.48514E-05   -0.37382E-05  3856   0.146E-01    0.119E-02
DAV:   9    -0.161529669037E+03    0.78522E-07   -0.12435E-05  3298   0.450E-02    0.662E-03
DAV:  10    -0.161529669236E+03   -0.19884E-06   -0.48990E-06  2396   0.244E-02
 256 F= -.16152967E+03 E0= -.16149521E+03  d E =-.163340E-02
       N       E                     dE             d eps       ncg     rms          rms(c)
DAV:   1    -0.161528812828E+03    0.85621E-03   -0.81877E-01  2610   0.166E+00    0.278E-01
DAV:   2    -0.161536127769E+03   -0.73149E-02   -0.61705E-02  4632   0.707E-01    0.967E-01
DAV:   3    -0.161532373483E+03    0.37543E-02   -0.75078E-02  3949   0.818E-01    0.587E-01
DAV:   4    -0.161530601562E+03    0.17719E-02   -0.83230E-03  3564   0.548E-01    0.157E-01
DAV:   5    -0.161530866030E+03   -0.26447E-03   -0.97959E-04  3202   0.461E-01    0.124E-01
DAV:   6    -0.161530927642E+03   -0.61612E-04   -0.67116E-04  3251   0.452E-01    0.353E-02
DAV:   7    -0.161530991296E+03   -0.63654E-04   -0.21734E-04  3827   0.299E-01    0.274E-02
DAV:   8    -0.161530981041E+03    0.10255E-04   -0.76318E-05  3907   0.206E-01    0.159E-02
DAV:   9    -0.161530981232E+03   -0.19098E-06   -0.23943E-05  3634   0.625E-02    0.960E-03
DAV:  10    -0.161530981564E+03   -0.33202E-06   -0.99276E-06  2900   0.360E-02
 257 F= -.16153098E+03 E0= -.16149651E+03  d E =-.294573E-02
       N       E                     dE             d eps       ncg     rms          rms(c)
DAV:   1    -0.161521531593E+03    0.94496E-02   -0.32750E+00  2610   0.332E+00    0.553E-01
DAV:   2    -0.161551319166E+03   -0.29788E-01   -0.24311E-01  4615   0.138E+00    0.199E+00
DAV:   3    -0.161535252623E+03    0.16067E-01   -0.32606E-01  3949   0.160E+00    0.117E+00
DAV:   4    -0.161529197755E+03    0.60549E-02   -0.30220E-02  3521   0.115E+00    0.342E-01
DAV:   5    -0.161529937764E+03   -0.74001E-03   -0.38454E-03  3170   0.943E-01    0.277E-01
DAV:   6    -0.161529954140E+03   -0.16376E-04   -0.29617E-03  3259   0.902E-01    0.732E-02
DAV:   7    -0.161530185518E+03   -0.23138E-03   -0.90534E-04  3875   0.636E-01    0.566E-02
DAV:   8    -0.161530142731E+03    0.42787E-04   -0.32140E-04  3784   0.437E-01    0.363E-02
DAV:   9    -0.161530142744E+03   -0.12282E-07   -0.11001E-04  3562   0.129E-01    0.225E-02
DAV:  10    -0.161530144282E+03   -0.15386E-05   -0.45731E-05  3124   0.727E-02    0.150E-02
DAV:  11    -0.161530145079E+03   -0.79715E-06   -0.15269E-05  3092   0.328E-02    0.563E-03
DAV:  12    -0.161530145761E+03   -0.68120E-06   -0.29221E-06  1836   0.217E-02
 258 F= -.16153015E+03 E0= -.16149566E+03  d E =-.210993E-02
       N       E                     dE             d eps       ncg     rms          rms(c)
DAV:   1    -0.161526952842E+03    0.31922E-02   -0.15917E+00  2610   0.232E+00    0.391E-01
DAV:   2    -0.161541496192E+03   -0.14543E-01   -0.12778E-01  4781   0.107E+00    0.128E+00
DAV:   3    -0.161533531071E+03    0.79651E-02   -0.10944E-01  4034   0.121E+00    0.774E-01
DAV:   4    -0.161530758046E+03    0.27730E-02   -0.18261E-02  3686   0.691E-01    0.171E-01
DAV:   5    -0.161531131932E+03   -0.37389E-03   -0.20696E-03  3223   0.607E-01    0.141E-01
DAV:   6    -0.161531174349E+03   -0.42417E-04   -0.10302E-03  3282   0.610E-01    0.495E-02
DAV:   7    -0.161531245465E+03   -0.71115E-04   -0.35595E-04  3749   0.320E-01    0.357E-02
DAV:   8    -0.161531233833E+03    0.11632E-04   -0.12637E-04  3572   0.240E-01    0.195E-02
DAV:   9    -0.161531233615E+03    0.21735E-06   -0.42730E-05  3615   0.897E-02    0.102E-02
DAV:  10    -0.161531233923E+03   -0.30774E-06   -0.16527E-05  3164   0.557E-02    0.611E-03
DAV:  11    -0.161531234371E+03   -0.44738E-06   -0.63007E-06  2783   0.184E-02
 259 F= -.16153123E+03 E0= -.16149677E+03  d E =-.319854E-02
       N       E                     dE             d eps       ncg     rms          rms(c)
DAV:   1    -0.161531955113E+03   -0.72119E-03   -0.21871E-01  2610   0.852E-01    0.156E-01
DAV:   2    -0.161535408790E+03   -0.34537E-02   -0.26093E-02  4648   0.336E-01    0.734E-01
DAV:   3    -0.161532462295E+03    0.29465E-02   -0.29061E-02  3939   0.485E-01    0.243E-01
DAV:   4    -0.161532386298E+03    0.75997E-04   -0.18598E-03  4066   0.316E-01    0.662E-02
DAV:   5    -0.161532467002E+03   -0.80704E-04   -0.28999E-04  3256   0.294E-01    0.610E-02
DAV:   6    -0.161532496490E+03   -0.29488E-04   -0.16209E-04  3251   0.272E-01    0.174E-02
DAV:   7    -0.161532510914E+03   -0.14424E-04   -0.55290E-05  3797   0.144E-01    0.139E-02
DAV:   8    -0.161532508935E+03    0.19786E-05   -0.19268E-05  3231   0.874E-02    0.584E-03
DAV:   9    -0.161532509187E+03   -0.25175E-06   -0.68306E-06  2623   0.242E-02
 260 F= -.16153251E+03 E0= -.16149806E+03  d E =-.127482E-02
       N       E                     dE             d eps       ncg     rms          rms(c)
DAV:   1    -0.161530678152E+03    0.18308E-02   -0.19682E+00  2610   0.256E+00    0.466E-01
DAV:   2    -0.161561744814E+03   -0.31067E-01   -0.22511E-01  4532   0.952E-01    0.225E+00
DAV:   3    -0.161535374721E+03    0.26370E-01   -0.29475E-01  3925   0.142E+00    0.755E-01
DAV:   4    -0.161535117906E+03    0.25681E-03   -0.15908E-02  3972   0.993E-01    0.226E-01
DAV:   5    -0.161535601436E+03   -0.48353E-03   -0.24624E-03  3224   0.870E-01    0.202E-01
DAV:   6    -0.161535564478E+03    0.36958E-04   -0.15722E-03  3270   0.777E-01    0.537E-02
DAV:   7    -0.161535704586E+03   -0.14011E-03   -0.51316E-04  3641   0.461E-01    0.441E-02
DAV:   8    -0.161535683972E+03    0.20613E-04   -0.18692E-04  3405   0.287E-01    0.213E-02
DAV:   9    -0.161535686957E+03   -0.29850E-05   -0.70956E-05  3631   0.740E-02    0.144E-02
DAV:  10    -0.161535687431E+03   -0.47369E-06   -0.22241E-05  3015   0.504E-02    0.932E-03
DAV:  11    -0.161535687426E+03    0.54133E-08   -0.74381E-06  2948   0.271E-02
 261 F= -.16153569E+03 E0= -.16150129E+03  d E =-.445305E-02
       N       E                     dE             d eps       ncg     rms          rms(c)
DAV:   1    -0.161518689452E+03    0.16998E-01   -0.78704E+00  2610   0.512E+00    0.929E-01
DAV:   2    -0.161645617656E+03   -0.12693E+00   -0.88027E-01  4388   0.180E+00    0.469E+00
DAV:   3    -0.161542391437E+03    0.10323E+00   -0.13685E+00  3954   0.275E+00    0.157E+00
DAV:   4    -0.161537997422E+03    0.43940E-02   -0.61966E-02  3827   0.213E+00    0.520E-01
DAV:   5    -0.161539184580E+03   -0.11872E-02   -0.91913E-03  3259   0.168E+00    0.478E-01
DAV:   6    -0.161538576110E+03    0.60847E-03   -0.66061E-03  3244   0.149E+00    0.141E-01
DAV:   7    -0.161539088935E+03   -0.51283E-03   -0.23764E-03  3627   0.969E-01    0.915E-02
DAV:   8    -0.161539021535E+03    0.67400E-04   -0.79245E-04  3547   0.604E-01    0.531E-02
DAV:   9    -0.161539030980E+03   -0.94448E-05   -0.29732E-04  3612   0.156E-01    0.388E-02
DAV:  10    -0.161539031240E+03   -0.26013E-06   -0.91074E-05  3095   0.986E-02    0.278E-02
DAV:  11    -0.161539029446E+03    0.17946E-05   -0.36548E-05  3156   0.556E-02    0.962E-03
DAV:  12    -0.161539030817E+03   -0.13711E-05   -0.84408E-06  3148   0.317E-02    0.463E-03
DAV:  13    -0.161539031049E+03   -0.23236E-06   -0.18467E-06  1548   0.198E-02
 262 F= -.16153903E+03 E0= -.16150471E+03  d E =-.779668E-02
       N       E                     dE             d eps       ncg     rms          rms(c)
DAV:   1    -0.161537679111E+03    0.13517E-02   -0.57997E-01  2610   0.139E+00    0.257E-01
DAV:   2    -0.161547152699E+03   -0.94736E-02   -0.70437E-02  4634   0.534E-01    0.122E+00
DAV:   3    -0.161539271090E+03    0.78816E-02   -0.81838E-02  3896   0.803E-01    0.400E-01
DAV:   4    -0.161538988889E+03    0.28220E-03   -0.52406E-03  4076   0.543E-01    0.111E-01
DAV:   5    -0.161539157110E+03   -0.16822E-03   -0.75742E-04  3229   0.482E-01    0.105E-01
DAV:   6    -0.161539187729E+03   -0.30619E-04   -0.43126E-04  3299   0.440E-01    0.301E-02
DAV:   7    -0.161539232065E+03   -0.44336E-04   -0.15793E-04  3837   0.239E-01    0.231E-02
DAV:   8    -0.161539227455E+03    0.46100E-05   -0.53063E-05  3293   0.144E-01    0.114E-02
DAV:   9    -0.161539228038E+03   -0.58371E-06   -0.19654E-05  3412   0.411E-02    0.709E-03
DAV:  10    -0.161539228202E+03   -0.16368E-06   -0.65533E-06  2524   0.266E-02
 263 F= -.16153923E+03 E0= -.16150492E+03  d E =-.799383E-02
       N       E                     dE             d eps       ncg     rms          rms(c)
DAV:   1    -0.161537666271E+03    0.15618E-02   -0.14640E+00  2610   0.217E+00    0.509E-01
DAV:   2    -0.161606565241E+03   -0.68899E-01   -0.43686E-01  4988   0.144E+00    0.364E+00
DAV:   3    -0.161533753760E+03    0.72811E-01   -0.55201E-01  4245   0.183E+00    0.459E-01
DAV:   4    -0.161540578500E+03   -0.68247E-02   -0.13363E-02  4331   0.912E-01    0.158E-01
DAV:   5    -0.161540952292E+03   -0.37379E-03   -0.28964E-03  3228   0.907E-01    0.143E-01
DAV:   6    -0.161540952867E+03   -0.57515E-06   -0.11074E-03  3195   0.728E-01    0.513E-02
DAV:   7    -0.161541043090E+03   -0.90224E-04   -0.42086E-04  3901   0.376E-01    0.355E-02
DAV:   8    -0.161541035470E+03    0.76202E-05   -0.17277E-04  3080   0.253E-01    0.155E-02
DAV:   9    -0.161541038638E+03   -0.31673E-05   -0.66650E-05  3332   0.867E-02    0.869E-03
DAV:  10    -0.161541040374E+03   -0.17362E-05   -0.22350E-05  3002   0.470E-02    0.610E-03
DAV:  11    -0.161541041130E+03   -0.75629E-06   -0.65895E-06  2764   0.281E-02
 264 F= -.16154104E+03 E0= -.16150682E+03  d E =-.181293E-02
       N       E                     dE             d eps       ncg     rms          rms(c)
DAV:   1    -0.161541038501E+03    0.18724E-05   -0.34841E-03  2640   0.107E-01    0.247E-02
DAV:   2    -0.161541179751E+03   -0.14125E-03   -0.96840E-04  4859   0.544E-02    0.155E-01
DAV:   3    -0.161541022457E+03    0.15729E-03   -0.90348E-04  3892   0.877E-02    0.214E-02
DAV:   4    -0.161541044461E+03   -0.22004E-04   -0.34453E-05  2932   0.574E-02    0.845E-03
DAV:   5    -0.161541046017E+03   -0.15555E-05   -0.75826E-06  2644   0.458E-02    0.628E-03
DAV:   6    -0.161541047068E+03   -0.10508E-05   -0.22031E-06  1951   0.333E-02    0.240E-03
DAV:   7    -0.161541047443E+03   -0.37497E-06   -0.10655E-06  1596   0.189E-02
 265 F= -.16154105E+03 E0= -.16150682E+03  d E =-.181924E-02
       N       E                     dE             d eps       ncg     rms          rms(c)
DAV:   1    -0.161541057604E+03   -0.10536E-04   -0.11015E+00  2610   0.184E+00    0.482E-01
DAV:   2    -0.161615735258E+03   -0.74678E-01   -0.46010E-01  5052   0.156E+00    0.383E+00
DAV:   3    -0.161534619343E+03    0.81116E-01   -0.56876E-01  4373   0.185E+00    0.348E-01
DAV:   4    -0.161542927880E+03   -0.83085E-02   -0.11255E-02  4299   0.776E-01    0.137E-01
DAV:   5    -0.161543271176E+03   -0.34330E-03   -0.22373E-03  3247   0.768E-01    0.109E-01
DAV:   6    -0.161543324784E+03   -0.53608E-04   -0.76924E-04  3133   0.600E-01    0.446E-02
DAV:   7    -0.161543393578E+03   -0.68794E-04   -0.31470E-04  4127   0.318E-01    0.290E-02
DAV:   8    -0.161543389587E+03    0.39915E-05   -0.13148E-04  3071   0.218E-01    0.137E-02
DAV:   9    -0.161543391544E+03   -0.19568E-05   -0.50363E-05  3164   0.746E-02    0.774E-03
DAV:  10    -0.161543392790E+03   -0.12463E-05   -0.16107E-05  2980   0.393E-02    0.628E-03
DAV:  11    -0.161543393107E+03   -0.31688E-06   -0.50681E-06  2540   0.251E-02
 266 F= -.16154339E+03 E0= -.16150926E+03  d E =-.234566E-02
       N       E                     dE             d eps       ncg     rms          rms(c)
DAV:   1    -0.161537919904E+03    0.54729E-02   -0.35886E+00  2610   0.332E+00    0.851E-01
DAV:   2    -0.161774129624E+03   -0.23621E+00   -0.13994E+00  5068   0.269E+00    0.691E+00
DAV:   3    -0.161523031032E+03    0.25110E+00   -0.19728E+00  4290   0.320E+00    0.657E-01
DAV:   4    -0.161544333592E+03   -0.21303E-01   -0.37788E-02  4399   0.138E+00    0.243E-01
DAV:   5    -0.161545203151E+03   -0.86956E-03   -0.65592E-03  3212   0.132E+00    0.209E-01
DAV:   6    -0.161545286608E+03   -0.83457E-04   -0.26339E-03  3053   0.109E+00    0.903E-02
DAV:   7    -0.161545432919E+03   -0.14631E-03   -0.10139E-03  3895   0.580E-01    0.483E-02
DAV:   8    -0.161545436497E+03   -0.35775E-05   -0.42281E-04  3119   0.371E-01    0.307E-02
DAV:   9    -0.161545440428E+03   -0.39307E-05   -0.16910E-04  3124   0.142E-01    0.139E-02
DAV:  10    -0.161545444550E+03   -0.41224E-05   -0.52828E-05  3188   0.693E-02    0.981E-03
DAV:  11    -0.161545445639E+03   -0.10888E-05   -0.16558E-05  3044   0.466E-02    0.375E-03
DAV:  12    -0.161545446077E+03   -0.43842E-06   -0.30569E-06  2236   0.206E-02
 267 F= -.16154545E+03 E0= -.16151145E+03  d E =-.439863E-02
       N       E                     dE             d eps       ncg     rms          rms(c)
DAV:   1    -0.161544937240E+03    0.50840E-03   -0.20176E+00  2610   0.262E+00    0.473E-01
DAV:   2    -0.161572875682E+03   -0.27938E-01   -0.20248E-01  4388   0.841E-01    0.210E+00
DAV:   3    -0.161550235299E+03    0.22640E-01   -0.27442E-01  3978   0.135E+00    0.791E-01
DAV:   4    -0.161548966863E+03    0.12684E-02   -0.17646E-02  3798   0.116E+00    0.244E-01
DAV:   5    -0.161549482505E+03   -0.51564E-03   -0.26001E-03  3227   0.969E-01    0.228E-01
DAV:   6    -0.161549404519E+03    0.77986E-04   -0.18652E-03  3345   0.835E-01    0.519E-02
DAV:   7    -0.161549505421E+03   -0.10090E-03   -0.54686E-04  4070   0.448E-01    0.425E-02
DAV:   8    -0.161549491366E+03    0.14055E-04   -0.17116E-04  3352   0.251E-01    0.245E-02
DAV:   9    -0.161549491378E+03   -0.11816E-07   -0.54087E-05  3487   0.669E-02    0.176E-02
DAV:  10    -0.161549491411E+03   -0.33644E-07   -0.22071E-05  3066   0.520E-02    0.115E-02
DAV:  11    -0.161549491190E+03    0.22084E-06   -0.67809E-06  2836   0.266E-02
 268 F= -.16154949E+03 E0= -.16151558E+03  d E =-.404511E-02
       N       E                     dE             d eps       ncg     rms          rms(c)
DAV:   1    -0.161528421181E+03    0.21070E-01   -0.11858E+01  2610   0.639E+00    0.114E+00
DAV:   2    -0.161694404207E+03   -0.16598E+00   -0.11187E+00  4300   0.208E+00    0.535E+00
DAV:   3    -0.161566932212E+03    0.12747E+00   -0.19619E+00  4071   0.310E+00    0.200E+00
DAV:   4    -0.161554853288E+03    0.12079E-01   -0.90033E-02  3608   0.294E+00    0.744E-01
DAV:   5    -0.161556660312E+03   -0.18070E-02   -0.15383E-02  3240   0.230E+00    0.679E-01
DAV:   6    -0.161554878926E+03    0.17814E-02   -0.12570E-02  3334   0.194E+00    0.179E-01
DAV:   7    -0.161555627427E+03   -0.74850E-03   -0.40525E-03  3790   0.121E+00    0.117E-01
DAV:   8    -0.161555531596E+03    0.95831E-04   -0.12949E-03  3517   0.713E-01    0.729E-02
DAV:   9    -0.161555539209E+03   -0.76132E-05   -0.40973E-04  3684   0.173E-01    0.608E-02
DAV:  10    -0.161555535928E+03    0.32812E-05   -0.14488E-04  3092   0.133E-01    0.463E-02
DAV:  11    -0.161555529780E+03    0.61482E-05   -0.55823E-05  3260   0.727E-02    0.169E-02
DAV:  12    -0.161555533195E+03   -0.34150E-05   -0.17834E-05  3436   0.407E-02    0.631E-03
DAV:  13    -0.161555534583E+03   -0.13889E-05   -0.41143E-06  2428   0.252E-02    0.274E-03
DAV:  14    -0.161555535009E+03   -0.42532E-06   -0.85774E-07  1628   0.111E-02
 269 F= -.16155554E+03 E0= -.16152185E+03  d E =-.100889E-01
       N       E                     dE             d eps       ncg     rms          rms(c)
DAV:   1    -0.161433912265E+03    0.12162E+00   -0.47443E+01  2610   0.128E+01    0.226E+00
DAV:   2    -0.162062934874E+03   -0.62902E+00   -0.39736E+00  4292   0.434E+00    0.999E+00
DAV:   3    -0.161631182607E+03    0.43175E+00   -0.79447E+00  4156   0.567E+00    0.393E+00
DAV:   4    -0.161558334720E+03    0.72848E-01   -0.30475E-01  3474   0.612E+00    0.177E+00
DAV:   5    -0.161562577416E+03   -0.42427E-02   -0.58202E-02  3317   0.446E+00    0.164E+00
DAV:   6    -0.161550620382E+03    0.11957E-01   -0.51425E-02  3387   0.379E+00    0.599E-01
DAV:   7    -0.161552742646E+03   -0.21223E-02   -0.21884E-02  3509   0.264E+00    0.274E-01
DAV:   8    -0.161552375682E+03    0.36696E-03   -0.74501E-03  3725   0.167E+00    0.165E-01
DAV:   9    -0.161552463986E+03   -0.88304E-04   -0.21931E-03  3927   0.406E-01    0.148E-01
DAV:  10    -0.161552446301E+03    0.17686E-04   -0.69071E-04  3052   0.304E-01    0.120E-01
DAV:  11    -0.161552395898E+03    0.50403E-04   -0.32762E-04  323