<?xml version="1.0" encoding="ISO-8859-1"?>
<modeling>
 <generator>
  <i name="program" type="string">vasp </i>
  <i name="version" type="string">6.5.1  </i>
  <i name="subversion" type="string">10Mar25 (build Mar 14 2026 15:48:08) complex                          parallel </i>
  <i name="platform" type="string">LinuxNV </i>
  <i name="date" type="string">2026 03 24 </i>
  <i name="time" type="string">16:05:53 </i>
 </generator>
 <incar>
  <i type="string" name="SYSTEM">Cu(100) coverage-dependent binding (RPBE)</i>
  <i type="string" name="PREC">Normal</i>
  <i type="string" name="ALGO">Normal</i>
  <i type="int" name="ISPIN">     1</i>
  <i type="int" name="NELM">   200</i>
  <i type="int" name="IBRION">     2</i>
  <i name="EDIFF">      0.00000100</i>
  <i name="EDIFFG">     -0.03000000</i>
  <i type="int" name="NSW">   300</i>
  <i type="int" name="ISIF">     2</i>
  <i name="ENCUT">    450.00000000</i>
  <i type="string" name="LREAL">Auto</i>
  <i type="int" name="ISMEAR">     0</i>
  <i name="SIGMA">      0.10000000</i>
  <i type="logical" name="LWAVE"> F  </i>
  <i type="logical" name="LCHARG"> F  </i>
  <i type="int" name="LORBIT">    11</i>
  <i type="string" name="GGA">RP</i>
 </incar>
 <primitive_cell>
  <structure name="primitive_cell" >
   <crystal>
    <varray name="basis" >
     <v>       7.66857304       0.00000000       0.00000000 </v>
     <v>       0.00000000       7.66857304       0.00000000 </v>
     <v>       0.00000000       0.00000000      29.42250000 </v>
    </varray>
    <i name="volume">   1730.24932528 </i>
    <varray name="rec_basis" >
     <v>       0.13040236       0.00000000       0.00000000 </v>
     <v>       0.00000000       0.13040236       0.00000000 </v>
     <v>       0.00000000       0.00000000       0.03398759 </v>
    </varray>
   </crystal>
   <varray name="positions" >
    <v>       0.16666667       0.16666667       0.40785113 </v>
    <v>       0.50000000       0.16666667       0.40785113 </v>
    <v>       0.83333333       0.16666667       0.40785113 </v>
    <v>       0.16666667       0.50000000       0.40785113 </v>
    <v>       0.50000000       0.50000000       0.40785113 </v>
    <v>       0.83333333       0.50000000       0.40785113 </v>
    <v>       0.16666667       0.83333333       0.40785113 </v>
    <v>       0.50000000       0.83333333       0.40785113 </v>
    <v>       0.83333333       0.83333333       0.40785113 </v>
    <v>       0.00000000       0.00000000       0.46928371 </v>
    <v>       0.33333333       0.00000000       0.46928371 </v>
    <v>       0.66666667       0.00000000       0.46928371 </v>
    <v>       0.00000000       0.33333333       0.46928371 </v>
    <v>       0.33333333       0.33333333       0.46928371 </v>
    <v>       0.66666667       0.33333333       0.46928371 </v>
    <v>       0.00000000       0.66666667       0.46928371 </v>
    <v>       0.33333333       0.66666667       0.46928371 </v>
    <v>       0.66666667       0.66666667       0.46928371 </v>
    <v>       0.16666667       0.16666667       0.53071629 </v>
    <v>       0.50000000       0.16666667       0.53071629 </v>
    <v>       0.83333333       0.16666667       0.53071629 </v>
    <v>       0.16666667       0.50000000       0.53071629 </v>
    <v>       0.50000000       0.50000000       0.53071629 </v>
    <v>       0.83333333       0.50000000       0.53071629 </v>
    <v>       0.16666667       0.83333333       0.53071629 </v>
    <v>       0.50000000       0.83333333       0.53071629 </v>
    <v>       0.83333333       0.83333333       0.53071629 </v>
    <v>       0.00000000       0.00000000       0.59214887 </v>
    <v>       0.33333333       0.00000000       0.59214887 </v>
    <v>       0.66666667       0.00000000       0.59214887 </v>
    <v>       0.00000000       0.33333333       0.59214887 </v>
    <v>       0.33333333       0.33333333       0.59214887 </v>
    <v>       0.66666667       0.33333333       0.59214887 </v>
    <v>       0.00000000       0.66666667       0.59214887 </v>
    <v>       0.33333333       0.66666667       0.59214887 </v>
    <v>       0.66666667       0.66666667       0.59214887 </v>
    <v>       0.16666667       0.23553157       0.68731413 </v>
    <v>       0.16666667       0.28443245       0.64992778 </v>
    <v>       0.16666667       0.38223422       0.64992778 </v>
    <v>       0.16666667       0.43113510       0.68731413 </v>
    <v>       0.16666667       0.83333333       0.73829552 </v>
    <v>       0.16666667       0.83333333       0.77772113 </v>
    <v>       0.50000000       0.16666667       0.73829552 </v>
    <v>       0.50000000       0.16666667       0.77772113 </v>
   </varray>
  </structure>
  <varray name="primitive_index" >
   <v type="int" >        1 </v>
   <v type="int" >        2 </v>
   <v type="int" >        3 </v>
   <v type="int" >        4 </v>
   <v type="int" >        5 </v>
   <v type="int" >        6 </v>
   <v type="int" >        7 </v>
   <v type="int" >        8 </v>
   <v type="int" >        9 </v>
   <v type="int" >       10 </v>
   <v type="int" >       11 </v>
   <v type="int" >       12 </v>
   <v type="int" >       13 </v>
   <v type="int" >       14 </v>
   <v type="int" >       15 </v>
   <v type="int" >       16 </v>
   <v type="int" >       17 </v>
   <v type="int" >       18 </v>
   <v type="int" >       19 </v>
   <v type="int" >       20 </v>
   <v type="int" >       21 </v>
   <v type="int" >       22 </v>
   <v type="int" >       23 </v>
   <v type="int" >       24 </v>
   <v type="int" >       25 </v>
   <v type="int" >       26 </v>
   <v type="int" >       27 </v>
   <v type="int" >       28 </v>
   <v type="int" >       29 </v>
   <v type="int" >       30 </v>
   <v type="int" >       31 </v>
   <v type="int" >       32 </v>
   <v type="int" >       33 </v>
   <v type="int" >       34 </v>
   <v type="int" >       35 </v>
   <v type="int" >       36 </v>
   <v type="int" >       37 </v>
   <v type="int" >       38 </v>
   <v type="int" >       39 </v>
   <v type="int" >       40 </v>
   <v type="int" >       41 </v>
   <v type="int" >       42 </v>
   <v type="int" >       43 </v>
   <v type="int" >       44 </v>
  </varray>
 </primitive_cell>
 <kpoints>
  <generation param="Gamma">
   <v type="int" name="divisions">       3        3        1 </v>
   <v name="usershift">      0.00000000       0.00000000       0.00000000 </v>
   <v name="genvec1">      0.33333333       0.00000000       0.00000000 </v>
   <v name="genvec2">      0.00000000       0.33333333       0.00000000 </v>
   <v name="genvec3">      0.00000000       0.00000000       1.00000000 </v>
   <v name="shift">      0.00000000       0.00000000       0.00000000 </v>
  </generation>
  <varray name="kpointlist" >
   <v>       0.00000000       0.00000000       0.00000000 </v>
   <v>       0.33333333       0.00000000       0.00000000 </v>
   <v>       0.00000000       0.33333333       0.00000000 </v>
   <v>       0.33333333       0.33333333       0.00000000 </v>
   <v>      -0.33333333       0.33333333       0.00000000 </v>
  </varray>
  <varray name="weights" >
   <v>       0.11111111 </v>
   <v>       0.22222222 </v>
   <v>       0.22222222 </v>
   <v>       0.22222222 </v>
   <v>       0.22222222 </v>
  </varray>
 </kpoints>
 <parameters>
  <separator name="general" >
   <i type="string" name="SYSTEM">Cu(100) coverage-dependent binding (RPBE</i>
   <i type="logical" name="LCOMPAT"> F  </i>
  </separator>
  <separator name="electronic" >
   <i type="string" name="PREC">normal</i>
   <i name="ENMAX">    450.00000000</i>
   <i name="ENAUG">    644.87300000</i>
   <i name="EDIFF">      0.00000100</i>
   <i type="int" name="IALGO">    38</i>
   <i type="int" name="IWAVPR">    11</i>
   <i type="int" name="NBANDS">   261</i>
   <i type="int" name="NBANDSLOW">    -1</i>
   <i type="int" name="NBANDSHIGH">    -1</i>
   <i name="NELECT">    436.00000000</i>
   <i type="int" name="TURBO">     0</i>
   <i type="int" name="IRESTART">     0</i>
   <i type="int" name="NREBOOT">     0</i>
   <i type="int" name="NMIN">     0</i>
   <i name="EREF">      0.00000000</i>
   <separator name="electronic smearing" >
    <i type="int" name="ISMEAR">     0</i>
    <i name="SIGMA">      0.10000000</i>
    <i name="KSPACING">      0.50000000</i>
    <i type="logical" name="KGAMMA"> T  </i>
    <i type="logical" name="KBLOWUP"> T  </i>
   </separator>
   <separator name="electronic projectors" >
    <i type="logical" name="LREAL"> T  </i>
    <v name="ROPT">     -0.00050000     -0.00050000     -0.00050000     -0.00050000     -0.00050000     -0.00050000     -0.00050000     -0.00050000</v>
    <i type="int" name="LMAXPAW">  -100</i>
    <i type="int" name="LMAXMIX">     2</i>
    <i type="logical" name="NLSPLINE"> F  </i>
   </separator>
   <separator name="electronic startup" >
    <i type="int" name="ISTART">     0</i>
    <i type="int" name="ICHARG">     2</i>
    <i type="int" name="INIWAV">     1</i>
   </separator>
   <separator name="electronic spin" >
    <i type="int" name="ISPIN">     1</i>
    <i type="logical" name="LNONCOLLINEAR"> F  </i>
    <v name="MAGMOM">      1.00000000      1.00000000      1.00000000      1.00000000      1.00000000      1.00000000      1.00000000      1.00000000      1.00000000      1.00000000      1.00000000      1.00000000      1.00000000      1.00000000      1.00000000      1.00000000      1.00000000      1.00000000      1.00000000      1.00000000
      1.00000000      1.00000000      1.00000000      1.00000000      1.00000000      1.00000000      1.00000000      1.00000000      1.00000000      1.00000000      1.00000000      1.00000000      1.00000000      1.00000000      1.00000000      1.00000000      1.00000000      1.00000000      1.00000000      1.00000000
      1.00000000      1.00000000      1.00000000      1.00000000</v>
    <i name="NUPDOWN">     -1.00000000</i>
    <i type="logical" name="LSORBIT"> F  </i>
    <v name="SAXIS">      0.00000000      0.00000000      1.00000000</v>
    <i type="logical" name="LSPIRAL"> F  </i>
    <v name="QSPIRAL">      0.00000000      0.00000000      0.00000000</v>
    <i type="logical" name="LZEROZ"> F  </i>
   </separator>
   <separator name="electronic exchange-correlation" >
    <i type="logical" name="LASPH"> F  </i>
   </separator>
   <separator name="electronic convergence" >
    <i type="int" name="NELM">   200</i>
    <i type="int" name="NELMDL">    -5</i>
    <i type="int" name="NELMIN">     2</i>
    <i name="ENINI">    450.00000000</i>
    <separator name="electronic convergence detail" >
     <i type="logical" name="LDIAG"> T  </i>
     <i type="logical" name="LSUBROT"> F  </i>
     <i type="logical" name="LROBUST"> F  </i>
     <i type="int" name="ISEARCH">     0</i>
     <i name="WEIMIN">      0.00100000</i>
     <i name="EBREAK">      0.00000000</i>
     <i name="DEPER">      0.30000000</i>
     <i type="int" name="NRMM">     4</i>
     <i name="TIME">      0.40000000</i>
    </separator>
   </separator>
   <separator name="electronic mixer" >
    <i name="AMIX">      0.40000000</i>
    <i name="BMIX">      1.00000000</i>
    <i name="AMIN">      0.10000000</i>
    <i name="AMIX_MAG">      1.60000000</i>
    <i name="BMIX_MAG">      1.00000000</i>
    <separator name="electronic mixer details" >
     <i type="int" name="IMIX">     4</i>
     <i type="logical" name="MIXFIRST"> F  </i>
     <i type="int" name="MAXMIX">   -45</i>
     <i name="WC">    100.00000000</i>
     <i type="int" name="INIMIX">     1</i>
     <i type="int" name="MIXPRE">     1</i>
     <i type="int" name="MREMOVE">     5</i>
    </separator>
   </separator>
   <separator name="electronic dipolcorrection" >
    <i type="logical" name="LDIPOL"> F  </i>
    <i type="logical" name="LMONO"> F  </i>
    <i type="int" name="IDIPOL">     0</i>
    <i name="EPSILON">      1.00000000</i>
    <v name="DIPOL">   -100.00000000   -100.00000000   -100.00000000</v>
    <i name="EFIELD">      0.00000000</i>
    <i type="logical" name="LVACPOTAV"> F  </i>
   </separator>
  </separator>
  <separator name="grids" >
   <i type="int" name="NGX">    40</i>
   <i type="int" name="NGY">    40</i>
   <i type="int" name="NGZ">   160</i>
   <i type="int" name="NGXF">    80</i>
   <i type="int" name="NGYF">    80</i>
   <i type="int" name="NGZF">   320</i>
   <i type="logical" name="ADDGRID"> F  </i>
  </separator>
  <separator name="ionic" >
   <i type="int" name="NSW">   300</i>
   <i type="int" name="IBRION">     2</i>
   <i type="int" name="MDALGO">     0</i>
   <i type="int" name="ISIF">     2</i>
   <i name="PSTRESS">      0.00000000</i>
   <i name="EDIFFG">     -0.03000000</i>
   <i type="int" name="NFREE">     1</i>
   <i name="POTIM">      0.50000000</i>
   <i name="SMASS">     -3.00000000</i>
   <i name="SCALEE">      1.00000000</i>
  </separator>
  <separator name="ionic md" >
   <i name="TEBEG">      0.00010000</i>
   <i name="TEEND">      0.00010000</i>
   <i type="int" name="NBLOCK">     1</i>
   <i type="int" name="KBLOCK">   300</i>
   <i type="int" name="NPACO">   256</i>
   <i name="APACO">     10.00000000</i>
  </separator>
  <separator name="symmetry" >
   <i type="int" name="ISYM">     2</i>
   <i name="SYMPREC">      0.00001000</i>
  </separator>
  <separator name="dos" >
   <i type="int" name="LORBIT">    11</i>
   <v name="RWIGS">     -1.00000000     -1.00000000     -1.00000000     -1.00000000     -1.00000000     -1.00000000     -1.00000000     -1.00000000</v>
   <i type="int" name="NEDOS">   301</i>
   <i name="EMIN">     10.00000000</i>
   <i name="EMAX">    -10.00000000</i>
   <i name="EFERMI">      0.00000000</i>
  </separator>
  <separator name="writing" >
   <i type="int" name="NWRITE">     2</i>
   <i type="logical" name="LWAVE"> F  </i>
   <i type="logical" name="LDOWNSAMPLE"> F  </i>
   <i type="logical" name="LCHARG"> F  </i>
   <i type="logical" name="LPARD"> F  </i>
   <i type="logical" name="LVTOT"> F  </i>
   <i type="logical" name="LVHAR"> F  </i>
   <i type="logical" name="LELF"> F  </i>
   <i type="logical" name="LOPTICS"> F  </i>
   <v name="STM">      0.00000000      0.00000000      0.00000000      0.00000000      0.00000000      0.00000000      0.00000000</v>
  </separator>
  <separator name="performance" >
   <i type="int" name="NPAR">     1</i>
   <i type="int" name="NSIM">     4</i>
   <i type="int" name="NBLK">    -1</i>
   <i type="logical" name="LPLANE"> T  </i>
   <i type="logical" name="LSCALAPACK"> T  </i>
   <i type="logical" name="LSCAAWARE"> F  </i>
   <i type="logical" name="LSCALU"> F  </i>
   <i type="logical" name="LASYNC"> F  </i>
   <i type="logical" name="LORBITALREAL"> F  </i>
  </separator>
  <separator name="miscellaneous" >
   <i type="int" name="IDIOT">     3</i>
   <i type="int" name="PHON_NSTRUCT">    -1</i>
   <i type="logical" name="LMUSIC"> F  </i>
   <v name="POMASS">     63.54600000     16.00000000     12.01100000     16.00000000     12.01100000     16.00000000     12.01100000     16.00000000</v>
   <v name="DARWINR">      0.00000000      0.00000000      0.00000000      0.00000000      0.00000000      0.00000000      0.00000000      0.00000000</v>
   <v name="DARWINV">      1.00000000      1.00000000      1.00000000      1.00000000      1.00000000      1.00000000      1.00000000      1.00000000</v>
   <i type="logical" name="LCORR"> T  </i>
  </separator>
  <i type="logical" name="GGA_COMPAT"> T  </i>
  <i type="logical" name="LBERRY"> F  </i>
  <i type="int" name="ICORELEVEL">     0</i>
  <i type="logical" name="LDAU"> F  </i>
  <i type="int" name="I_CONSTRAINED_M">     0</i>
  <separator name="electronic exchange-correlation" >
   <i type="string" name="GGA    ">RP</i>
   <i type="string" name="XC_C">1</i>
   <i type="int" name="VOSKOWN">     0</i>
   <i type="logical" name="LHFCALC"> F  </i>
   <i type="string" name="PRECFOCK"></i>
   <i type="logical" name="LSYMGRAD"> F  </i>
   <i type="logical" name="LHFONE"> F  </i>
   <i type="logical" name="LRHFCALC"> F  </i>
   <i type="logical" name="LTHOMAS"> F  </i>
   <i type="logical" name="LMODELHF"> F  </i>
   <i type="logical" name="LFOCKACE"> F  </i>
   <i name="ENCUT4O">     -1.00000000</i>
   <i type="int" name="EXXOEP">     0</i>
   <i type="int" name="FOURORBIT">     0</i>
   <i name="AEXX">      0.00000000</i>
   <i name="HFALPHA">      0.00000000</i>
   <i name="MCALPHA">      0.00000000</i>
   <i name="ALDAX">      1.00000000</i>
   <i name="AGGAX">      1.00000000</i>
   <i name="AMGGAX">      1.00000000</i>
   <i name="ALDAC">      1.00000000</i>
   <i name="AGGAC">      1.00000000</i>
   <i name="AMGGAC">      1.00000000</i>
   <i type="int" name="NKREDX">     1</i>
   <i type="int" name="NKREDY">     1</i>
   <i type="int" name="NKREDZ">     1</i>
   <i type="logical" name="SHIFTRED"> F  </i>
   <i type="logical" name="ODDONLY"> F  </i>
   <i type="logical" name="EVENONLY"> F  </i>
   <i type="int" name="LMAXFOCK">     0</i>
   <i type="int" name="NMAXFOCKAE">     0</i>
   <i type="logical" name="LFOCKAEDFT"> F  </i>
   <i name="HFSCREEN">      0.00000000</i>
   <i name="HFSCREENC">      0.00000000</i>
   <i type="int" name="NBANDSGWLOW">     0</i>
  </separator>
  <separator name="vdW DFT" >
   <i type="logical" name="LUSE_VDW"> F  </i>
   <i type="int" name="IVDW_NL">    -1</i>
   <i type="logical" name="LSPIN_VDW"> F  </i>
   <i name="ZAB_VDW">     -0.84910000</i>
   <i name="GAMMA_VDW">      1.39626340</i>
   <i name="ALPHA_VDW">      0.00000000</i>
   <i name="PARAM1">      0.12340000</i>
   <i name="PARAM2">      1.00000000</i>
   <i name="BPARAM">      6.30000000</i>
   <i name="CPARAM">      0.00930000</i>
  </separator>
  <separator name="model GW" >
   <i type="int" name="MODEL_GW">     0</i>
   <i name="MODEL_EPS0">     23.59430898</i>
   <i name="MODEL_ALPHA">      1.00000000</i>
  </separator>
  <separator name="linear response parameters" >
   <i type="logical" name="LEPSILON"> F  </i>
   <i type="logical" name="LRPA"> F  </i>
   <i type="logical" name="LNABLA"> F  </i>
   <i type="logical" name="LVEL"> F  </i>
   <i name="CSHIFT">      0.10000000</i>
   <i name="OMEGAMAX">     -1.00000000</i>
   <i name="DEG_THRESHOLD">      0.00200000</i>
   <i name="RTIME">     -0.10000000</i>
   <i name="WPLASMAI">      0.00000000</i>
   <v name="DFIELD">      0.00000000      0.00000000      0.00000000</v>
   <v name="WPLASMA">      0.00000000      0.00000000      0.00000000      0.00000000      0.00000000      0.00000000      0.00000000      0.00000000      0.00000000</v>
  </separator>
  <separator name="orbital magnetization" >
   <i type="logical" name="NUCIND"> F  </i>
   <v name="MAGPOS">      0.00000000      0.00000000      0.00000000</v>
   <i type="logical" name="LNICSALL"> T  </i>
   <i type="logical" name="ORBITALMAG"> F  </i>
   <i type="logical" name="LMAGBLOCH"> F  </i>
   <i type="logical" name="LCHIMAG"> F  </i>
   <i type="logical" name="LGAUGE"> T  </i>
   <i type="int" name="MAGATOM">     0</i>
   <v name="MAGDIPOL">      0.00000000      0.00000000      0.00000000</v>
   <v name="AVECCONST">      0.00000000      0.00000000      0.00000000</v>
  </separator>
  <separator name="response functions" >
   <i type="logical" name="LALL_IN_ONE"> F  </i>
   <i type="int" name="IALL_IN_ONE">    -1</i>
   <i type="int" name="NBANDS_WAVE">    -1</i>
   <i type="logical" name="LFINITE_TEMPERATURE"> F  </i>
   <i type="logical" name="LADDER"> F  </i>
   <i type="logical" name="LRPAFORCE"> F  </i>
   <i type="logical" name="LFXC"> F  </i>
   <i type="logical" name="LHARTREE"> T  </i>
   <i type="int" name="IBSE">     2</i>
   <v type="int" name="KPOINT">    -1     0     0     0</v>
   <i type="logical" name="LTCTC"> F  </i>
   <i type="logical" name="LTCTE"> F  </i>
   <i type="logical" name="LTETE"> F  </i>
   <i type="logical" name="LTRIPLET"> F  </i>
   <i type="logical" name="LFXCEPS"> F  </i>
   <i type="logical" name="LFXHEG"> F  </i>
   <i type="int" name="NATURALO">     2</i>
   <i type="logical" name="LHOLEGF"> F  </i>
   <i type="logical" name="L2ORDER"> F  </i>
   <i type="logical" name="LDMP1"> F  </i>
   <i type="logical" name="LMP2LT"> F  </i>
   <i type="logical" name="LSMP2LT"> F  </i>
   <i type="logical" name="LGWLF"> F  </i>
   <i name="ENCUTGW">     -1.60000002</i>
   <i name="ENCUTGWSOFT">     -1.60000002</i>
   <i name="ENCUTLF">     -1.00000000</i>
   <i type="logical" name="ESF_SPLINES"> F  </i>
   <i name="ESF_CONV">      0.01000000</i>
   <i type="int" name="ESF_NINTER">    15</i>
   <i type="int" name="LMAXMP2">    -1</i>
   <i name="SCISSOR">      0.00000000</i>
   <i type="int" name="NOMEGA">     0</i>
   <i type="int" name="NOMEGAR">     0</i>
   <i type="int" name="NBANDSGW">    -1</i>
   <i type="int" name="NBANDSO">    -1</i>
   <i type="int" name="NBANDSV">    -1</i>
   <i type="int" name="NELMGW">     1</i>
   <i type="int" name="NELMHF">     1</i>
   <i type="int" name="DIM">     3</i>
   <i type="int" name="IESPILON">     4</i>
   <i type="int" name="ANTIRES">     0</i>
   <i name="OMEGAMAX">    -30.00000000</i>
   <i name="OMEGAMIN">    -30.00000000</i>
   <i name="OMEGATL">   -200.00000000</i>
   <i type="int" name="OMEGAGRID">     0</i>
   <i name="CSHIFT">     -0.10000000</i>
   <i type="logical" name="LSELFENERGY"> F  </i>
   <i type="logical" name="LSPECTRAL"> F  </i>
   <i type="logical" name="LSPECTRALGW"> F  </i>
   <i type="logical" name="LSINGLES"> F  </i>
   <i type="logical" name="LFERMIGW"> F  </i>
   <i type="logical" name="ODDONLYGW"> F  </i>
   <i type="logical" name="EVENONLYGW"> F  </i>
   <i type="int" name="NKREDLFX">     1</i>
   <i type="int" name="NKREDLFY">     1</i>
   <i type="int" name="NKREDLFZ">     1</i>
   <i type="int" name="MAXMEM">  2800</i>
   <i type="int" name="TELESCOPE">     0</i>
   <i type="int" name="NTAUPAR">    -1</i>
   <i type="int" name="NOMEGAPAR">    -1</i>
   <i name="DAMP_NEWTON">      0.80000001</i>
   <i name="LAMBDA">      1.00000000</i>
  </separator>
  <separator name="External order field" >
   <i name="OFIELD_KAPPA">      0.00000000</i>
   <v name="OFIELD_K">      0.00000000      0.00000000      0.00000000</v>
   <i name="OFIELD_Q6_NEAR">      0.00000000</i>
   <i name="OFIELD_Q6_FAR">      0.00000000</i>
   <i name="OFIELD_A">      0.00000000</i>
  </separator>
  <separator name="optional k-points parameters" >
   <i type="int" name="KPOINTS_OPT_MODE">     1</i>
   <i type="logical" name="LKPOINTS_OPT"> F  </i>
  </separator>
 </parameters>
 <atominfo>
  <atoms>      44 </atoms>
  <types>       8 </types>
  <array name="atoms" >
   <dimension dim="1">ion</dimension>
   <field type="string">element</field>
   <field type="int">atomtype</field>
   <set>
    <rc><c>Cu</c><c>   1</c></rc>
    <rc><c>Cu</c><c>   1</c></rc>
    <rc><c>Cu</c><c>   1</c></rc>
    <rc><c>Cu</c><c>   1</c></rc>
    <rc><c>Cu</c><c>   1</c></rc>
    <rc><c>Cu</c><c>   1</c></rc>
    <rc><c>Cu</c><c>   1</c></rc>
    <rc><c>Cu</c><c>   1</c></rc>
    <rc><c>Cu</c><c>   1</c></rc>
    <rc><c>Cu</c><c>   1</c></rc>
    <rc><c>Cu</c><c>   1</c></rc>
    <rc><c>Cu</c><c>   1</c></rc>
    <rc><c>Cu</c><c>   1</c></rc>
    <rc><c>Cu</c><c>   1</c></rc>
    <rc><c>Cu</c><c>   1</c></rc>
    <rc><c>Cu</c><c>   1</c></rc>
    <rc><c>Cu</c><c>   1</c></rc>
    <rc><c>Cu</c><c>   1</c></rc>
    <rc><c>Cu</c><c>   1</c></rc>
    <rc><c>Cu</c><c>   1</c></rc>
    <rc><c>Cu</c><c>   1</c></rc>
    <rc><c>Cu</c><c>   1</c></rc>
    <rc><c>Cu</c><c>   1</c></rc>
    <rc><c>Cu</c><c>   1</c></rc>
    <rc><c>Cu</c><c>   1</c></rc>
    <rc><c>Cu</c><c>   1</c></rc>
    <rc><c>Cu</c><c>   1</c></rc>
    <rc><c>Cu</c><c>   1</c></rc>
    <rc><c>Cu</c><c>   1</c></rc>
    <rc><c>Cu</c><c>   1</c></rc>
    <rc><c>Cu</c><c>   1</c></rc>
    <rc><c>Cu</c><c>   1</c></rc>
    <rc><c>Cu</c><c>   1</c></rc>
    <rc><c>Cu</c><c>   1</c></rc>
    <rc><c>Cu</c><c>   1</c></rc>
    <rc><c>Cu</c><c>   1</c></rc>
    <rc><c>O </c><c>   2</c></rc>
    <rc><c>C </c><c>   3</c></rc>
    <rc><c>C </c><c>   3</c></rc>
    <rc><c>O </c><c>   4</c></rc>
    <rc><c>C </c><c>   5</c></rc>
    <rc><c>O </c><c>   6</c></rc>
    <rc><c>C </c><c>   7</c></rc>
    <rc><c>O </c><c>   8</c></rc>
   </set>
  </array>
  <array name="atomtypes" >
   <dimension dim="1">type</dimension>
   <field type="int">atomspertype</field>
   <field type="string">element</field>
   <field>mass</field>
   <field>valence</field>
   <field type="string">pseudopotential</field>
   <set>
    <rc><c>  36</c><c>Cu</c><c>     63.54600000</c><c>     11.00000000</c><c>  PAW_PBE Cu 22Jun2005                  </c></rc>
    <rc><c>   1</c><c>O </c><c>     16.00000000</c><c>      6.00000000</c><c>  PAW_PBE O 08Apr2002                   </c></rc>
    <rc><c>   2</c><c>C </c><c>     12.01100000</c><c>      4.00000000</c><c>  PAW_PBE C 08Apr2002                   </c></rc>
    <rc><c>   1</c><c>O </c><c>     16.00000000</c><c>      6.00000000</c><c>  PAW_PBE O 08Apr2002                   </c></rc>
    <rc><c>   1</c><c>C </c><c>     12.01100000</c><c>      4.00000000</c><c>  PAW_PBE C 08Apr2002                   </c></rc>
    <rc><c>   1</c><c>O </c><c>     16.00000000</c><c>      6.00000000</c><c>  PAW_PBE O 08Apr2002                   </c></rc>
    <rc><c>   1</c><c>C </c><c>     12.01100000</c><c>      4.00000000</c><c>  PAW_PBE C 08Apr2002                   </c></rc>
    <rc><c>   1</c><c>O </c><c>     16.00000000</c><c>      6.00000000</c><c>  PAW_PBE O 08Apr2002                   </c></rc>
   </set>
  </array>
 </atominfo>
 <structure name="initialpos" >
  <crystal>
   <varray name="basis" >
    <v>       7.66857304       0.00000000       0.00000000 </v>
    <v>       0.00000000       7.66857304       0.00000000 </v>
    <v>       0.00000000       0.00000000      29.42250000 </v>
   </varray>
   <i name="volume">   1730.24932528 </i>
   <varray name="rec_basis" >
    <v>       0.13040236       0.00000000       0.00000000 </v>
    <v>       0.00000000       0.13040236       0.00000000 </v>
    <v>       0.00000000       0.00000000       0.03398759 </v>
   </varray>
  </crystal>
  <varray name="positions" >
   <v>       0.16666667       0.16666667       0.40785113 </v>
   <v>       0.50000000       0.16666667       0.40785113 </v>
   <v>       0.83333333       0.16666667       0.40785113 </v>
   <v>       0.16666667       0.50000000       0.40785113 </v>
   <v>       0.50000000       0.50000000       0.40785113 </v>
   <v>       0.83333333       0.50000000       0.40785113 </v>
   <v>       0.16666667       0.83333333       0.40785113 </v>
   <v>       0.50000000       0.83333333       0.40785113 </v>
   <v>       0.83333333       0.83333333       0.40785113 </v>
   <v>       0.00000000       0.00000000       0.46928371 </v>
   <v>       0.33333333       0.00000000       0.46928371 </v>
   <v>       0.66666667       0.00000000       0.46928371 </v>
   <v>       0.00000000       0.33333333       0.46928371 </v>
   <v>       0.33333333       0.33333333       0.46928371 </v>
   <v>       0.66666667       0.33333333       0.46928371 </v>
   <v>       0.00000000       0.66666667       0.46928371 </v>
   <v>       0.33333333       0.66666667       0.46928371 </v>
   <v>       0.66666667       0.66666667       0.46928371 </v>
   <v>       0.16666667       0.16666667       0.53071629 </v>
   <v>       0.50000000       0.16666667       0.53071629 </v>
   <v>       0.83333333       0.16666667       0.53071629 </v>
   <v>       0.16666667       0.50000000       0.53071629 </v>
   <v>       0.50000000       0.50000000       0.53071629 </v>
   <v>       0.83333333       0.50000000       0.53071629 </v>
   <v>       0.16666667       0.83333333       0.53071629 </v>
   <v>       0.50000000       0.83333333       0.53071629 </v>
   <v>       0.83333333       0.83333333       0.53071629 </v>
   <v>       0.00000000       0.00000000       0.59214887 </v>
   <v>       0.33333333       0.00000000       0.59214887 </v>
   <v>       0.66666667       0.00000000       0.59214887 </v>
   <v>       0.00000000       0.33333333       0.59214887 </v>
   <v>       0.33333333       0.33333333       0.59214887 </v>
   <v>       0.66666667       0.33333333       0.59214887 </v>
   <v>       0.00000000       0.66666667       0.59214887 </v>
   <v>       0.33333333       0.66666667       0.59214887 </v>
   <v>       0.66666667       0.66666667       0.59214887 </v>
   <v>       0.16666667       0.23553157       0.68731413 </v>
   <v>       0.16666667       0.28443245       0.64992778 </v>
   <v>       0.16666667       0.38223422       0.64992778 </v>
   <v>       0.16666667       0.43113510       0.68731413 </v>
   <v>       0.16666667       0.83333333       0.73829552 </v>
   <v>       0.16666667       0.83333333       0.77772113 </v>
   <v>       0.50000000       0.16666667       0.73829552 </v>
   <v>       0.50000000       0.16666667       0.77772113 </v>
  </varray>
  <varray name="selective"  type="logical" >
   <v type="logical" >  F  F  F </v>
   <v type="logical" >  F  F  F </v>
   <v type="logical" >  F  F  F </v>
   <v type="logical" >  F  F  F </v>
   <v type="logical" >  F  F  F </v>
   <v type="logical" >  F  F  F </v>
   <v type="logical" >  F  F  F </v>
   <v type="logical" >  F  F  F </v>
   <v type="logical" >  F  F  F </v>
   <v type="logical" >  F  F  F </v>
   <v type="logical" >  F  F  F </v>
   <v type="logical" >  F  F  F </v>
   <v type="logical" >  F  F  F </v>
   <v type="logical" >  F  F  F </v>
   <v type="logical" >  F  F  F </v>
   <v type="logical" >  F  F  F </v>
   <v type="logical" >  F  F  F </v>
   <v type="logical" >  F  F  F </v>
   <v type="logical" >  T  T  T </v>
   <v type="logical" >  T  T  T </v>
   <v type="logical" >  T  T  T </v>
   <v type="logical" >  T  T  T </v>
   <v type="logical" >  T  T  T </v>
   <v type="logical" >  T  T  T </v>
   <v type="logical" >  T  T  T </v>
   <v type="logical" >  T  T  T </v>
   <v type="logical" >  T  T  T </v>
   <v type="logical" >  T  T  T </v>
   <v type="logical" >  T  T  T </v>
   <v type="logical" >  T  T  T </v>
   <v type="logical" >  T  T  T </v>
   <v type="logical" >  T  T  T </v>
   <v type="logical" >  T  T  T </v>
   <v type="logical" >  T  T  T </v>
   <v type="logical" >  T  T  T </v>
   <v type="logical" >  T  T  T </v>
   <v type="logical" >  T  T  T </v>
   <v type="logical" >  T  T  T </v>
   <v type="logical" >  T  T  T </v>
   <v type="logical" >  T  T  T </v>
   <v type="logical" >  T  T  T </v>
   <v type="logical" >  T  T  T </v>
   <v type="logical" >  T  T  T </v>
   <v type="logical" >  T  T  T </v>
  </varray>
  <nose>
   <v>      -3.00000000       0.00000000       0.00010000       0.00010000 </v>
  </nose>
 </structure>
 <calculation>
  <scstep>
   <time name="dav">    2.91    2.91</time>
   <time name="total">    2.97    2.97</time>
   <energy>
    <i name="alphaZ">    647.15761179 </i>
    <i name="ewald"> 310869.66523127 </i>
    <i name="hartreedc">-360167.27961740 </i>
    <i name="XCdc">   1779.42141167 </i>
    <i name="pawpsdc">  46065.94026349 </i>
    <i name="pawaedc"> -49848.22548894 </i>
    <i name="eentropy">     -0.06430934 </i>
    <i name="bandstr">   2569.72170062 </i>
    <i name="atom">  52355.81633338 </i>
    <i name="e_fr_energy">   4272.15313655 </i>
    <i name="e_wo_entrp">   4272.21744588 </i>
    <i name="e_0_energy">   4272.18529122 </i>
   </energy>
  </scstep>
  <scstep>
   <time name="dav">    2.83    2.84</time>
   <time name="total">    2.83    2.84</time>
   <energy>
    <i name="e_fr_energy">    631.66602426 </i>
    <i name="e_wo_entrp">    631.73518533 </i>
    <i name="e_0_energy">    631.70060480 </i>
   </energy>
  </scstep>
  <scstep>
   <time name="dav">    3.61    3.62</time>
   <time name="total">    3.61    3.62</time>
   <energy>
    <i name="e_fr_energy">    -16.34409030 </i>
    <i name="e_wo_entrp">    -16.25535374 </i>
    <i name="e_0_energy">    -16.29972202 </i>
   </energy>
  </scstep>
  <scstep>
   <time name="dav">    4.33    4.34</time>
   <time name="total">    4.33    4.34</time>
   <energy>
    <i name="e_fr_energy">   -152.82575398 </i>
    <i name="e_wo_entrp">   -152.74622632 </i>
    <i name="e_0_energy">   -152.78599015 </i>
   </energy>
  </scstep>
  <scstep>
   <time name="dav">    4.14    4.14</time>
   <time name="total">    4.34    4.35</time>
   <energy>
    <i name="e_fr_energy">   -167.54749258 </i>
    <i name="e_wo_entrp">   -167.45791079 </i>
    <i name="e_0_energy">   -167.50270169 </i>
   </energy>
  </scstep>
  <scstep>
   <time name="dav">    3.40    3.41</time>
   <time name="total">    3.65    3.66</time>
   <energy>
    <i name="e_fr_energy">   -146.54107238 </i>
    <i name="e_wo_entrp">   -146.43696976 </i>
    <i name="e_0_energy">   -146.48902107 </i>
   </energy>
  </scstep>
  <scstep>
   <time name="dav">    3.63    3.64</time>
   <time name="total">    3.88    3.89</time>
   <energy>
    <i name="e_fr_energy">   -134.65409768 </i>
    <i name="e_wo_entrp">   -134.58909413 </i>
    <i name="e_0_energy">   -134.62159590 </i>
   </energy>
  </scstep>
  <scstep>
   <time name="dav">    4.14    4.15</time>
   <time name="total">    4.39    4.40</time>
   <energy>
    <i name="e_fr_energy">   -121.47895683 </i>
    <i name="e_wo_entrp">   -121.42899547 </i>
    <i name="e_0_energy">   -121.45397615 </i>
   </energy>
  </scstep>
  <scstep>
   <time name="dav">    4.13    4.14</time>
   <time name="total">    4.38    4.39</time>
   <energy>
    <i name="e_fr_energy">   -119.06080295 </i>
    <i name="e_wo_entrp">   -119.00418662 </i>
    <i name="e_0_energy">   -119.03249478 </i>
   </energy>
  </scstep>
  <scstep>
   <time name="dav">    3.78    3.79</time>
   <time name="total">    4.03    4.03</time>
   <energy>
    <i name="e_fr_energy">   -118.87958415 </i>
    <i name="e_wo_entrp">   -118.81194506 </i>
    <i name="e_0_energy">   -118.84576461 </i>
   </energy>
  </scstep>
  <scstep>
   <time name="dav">    3.60    3.60</time>
   <time name="total">    3.84    3.85</time>
   <energy>
    <i name="e_fr_energy">   -118.87140238 </i>
    <i name="e_wo_entrp">   -118.81667109 </i>
    <i name="e_0_energy">   -118.84403673 </i>
   </energy>
  </scstep>
  <scstep>
   <time name="dav">    3.19    3.20</time>
   <time name="total">    3.44    3.46</time>
   <energy>
    <i name="e_fr_energy">   -118.92380532 </i>
    <i name="e_wo_entrp">   -118.86810980 </i>
    <i name="e_0_energy">   -118.89595756 </i>
   </energy>
  </scstep>
  <scstep>
   <time name="dav">    3.25    3.25</time>
   <time name="total">    3.49    3.50</time>
   <energy>
    <i name="e_fr_energy">   -118.94633854 </i>
    <i name="e_wo_entrp">   -118.89164378 </i>
    <i name="e_0_energy">   -118.91899116 </i>
   </energy>
  </scstep>
  <scstep>
   <time name="dav">    3.62    3.63</time>
   <time name="total">    3.87    3.87</time>
   <energy>
    <i name="e_fr_energy">   -118.86828919 </i>
    <i name="e_wo_entrp">   -118.80886047 </i>
    <i name="e_0_energy">   -118.83857483 </i>
   </energy>
  </scstep>
  <scstep>
   <time name="dav">    3.87    3.88</time>
   <time name="total">    4.12    4.13</time>
   <energy>
    <i name="e_fr_energy">   -118.86175713 </i>
    <i name="e_wo_entrp">   -118.80042164 </i>
    <i name="e_0_energy">   -118.83108939 </i>
   </energy>
  </scstep>
  <scstep>
   <time name="dav">    3.16    3.17</time>
   <time name="total">    3.41    3.42</time>
   <energy>
    <i name="e_fr_energy">   -118.86131893 </i>
    <i name="e_wo_entrp">   -118.79996136 </i>
    <i name="e_0_energy">   -118.83064015 </i>
   </energy>
  </scstep>
  <scstep>
   <time name="dav">    3.19    3.20</time>
   <time name="total">    3.44    3.45</time>
   <energy>
    <i name="e_fr_energy">   -118.86069421 </i>
    <i name="e_wo_entrp">   -118.80004483 </i>
    <i name="e_0_energy">   -118.83036952 </i>
   </energy>
  </scstep>
  <scstep>
   <time name="dav">    3.54    3.54</time>
   <time name="total">    3.79    3.80</time>
   <energy>
    <i name="e_fr_energy">   -118.86023714 </i>
    <i name="e_wo_entrp">   -118.79952459 </i>
    <i name="e_0_energy">   -118.82988087 </i>
   </energy>
  </scstep>
  <scstep>
   <time name="dav">    3.91    3.92</time>
   <time name="total">    4.17    4.18</time>
   <energy>
    <i name="e_fr_energy">   -118.86014570 </i>
    <i name="e_wo_entrp">   -118.79968130 </i>
    <i name="e_0_energy">   -118.82991350 </i>
   </energy>
  </scstep>
  <scstep>
   <time name="dav">    3.94    3.95</time>
   <time name="total">    4.20    4.21</time>
   <energy>
    <i name="e_fr_energy">   -118.86032168 </i>
    <i name="e_wo_entrp">   -118.79977854 </i>
    <i name="e_0_energy">   -118.83005011 </i>
   </energy>
  </scstep>
  <scstep>
   <time name="dav">    3.83    3.84</time>
   <time name="total">    4.08    4.09</time>
   <energy>
    <i name="e_fr_energy">   -118.86054153 </i>
    <i name="e_wo_entrp">   -118.80004169 </i>
    <i name="e_0_energy">   -118.83029161 </i>
   </energy>
  </scstep>
  <scstep>
   <time name="dav">    3.33    3.33</time>
   <time name="total">    3.58    3.59</time>
   <energy>
    <i name="e_fr_energy">   -118.86093812 </i>
    <i name="e_wo_entrp">   -118.80031311 </i>
    <i name="e_0_energy">   -118.83062561 </i>
   </energy>
  </scstep>
  <scstep>
   <time name="dav">    3.65    3.65</time>
   <time name="total">    3.90    3.91</time>
   <energy>
    <i name="e_fr_energy">   -118.86134884 </i>
    <i name="e_wo_entrp">   -118.80071191 </i>
    <i name="e_0_energy">   -118.83103037 </i>
   </energy>
  </scstep>
  <scstep>
   <time name="dav">    3.21    3.21</time>
   <time name="total">    3.46    3.47</time>
   <energy>
    <i name="e_fr_energy">   -118.86156228 </i>
    <i name="e_wo_entrp">   -118.80094661 </i>
    <i name="e_0_energy">   -118.83125444 </i>
   </energy>
  </scstep>
  <scstep>
   <time name="dav">    3.60    3.61</time>
   <time name="total">    3.86    3.87</time>
   <energy>
    <i name="e_fr_energy">   -118.86178840 </i>
    <i name="e_wo_entrp">   -118.80121883 </i>
    <i name="e_0_energy">   -118.83150362 </i>
   </energy>
  </scstep>
  <scstep>
   <time name="dav">    3.24    3.25</time>
   <time name="total">    3.50    3.51</time>
   <energy>
    <i name="e_fr_energy">   -118.86188945 </i>
    <i name="e_wo_entrp">   -118.80132793 </i>
    <i name="e_0_energy">   -118.83160869 </i>
   </energy>
  </scstep>
  <scstep>
   <time name="dav">    2.27    2.27</time>
   <time name="total">    2.53    2.53</time>
   <energy>
    <i name="e_fr_energy">   -118.86193346 </i>
    <i name="e_wo_entrp">   -118.80137463 </i>
    <i name="e_0_energy">   -118.83165404 </i>
   </energy>
  </scstep>
  <scstep>
   <time name="dav">    2.23    2.24</time>
   <time name="total">    2.49    2.50</time>
   <energy>
    <i name="e_fr_energy">   -118.86198856 </i>
    <i name="e_wo_entrp">   -118.80142475 </i>
    <i name="e_0_energy">   -118.83170665 </i>
   </energy>
  </scstep>
  <scstep>
   <time name="dav">    2.08    2.09</time>
   <time name="total">    2.34    2.35</time>
   <energy>
    <i name="e_fr_energy">   -118.86201644 </i>
    <i name="e_wo_entrp">   -118.80145173 </i>
    <i name="e_0_energy">   -118.83173409 </i>
   </energy>
  </scstep>
  <scstep>
   <time name="dav">    2.06    2.07</time>
   <time name="total">    2.33    2.33</time>
   <energy>
    <i name="e_fr_energy">   -118.86203146 </i>
    <i name="e_wo_entrp">   -118.80146488 </i>
    <i name="e_0_energy">   -118.83174817 </i>
   </energy>
  </scstep>
  <scstep>
   <time name="dav">    2.09    2.09</time>
   <time name="total">    2.35    2.36</time>
   <energy>
    <i name="e_fr_energy">   -118.86204606 </i>
    <i name="e_wo_entrp">   -118.80148015 </i>
    <i name="e_0_energy">   -118.83176311 </i>
   </energy>
  </scstep>
  <scstep>
   <time name="dav">    2.06    2.07</time>
   <time name="total">    2.33    2.34</time>
   <energy>
    <i name="e_fr_energy">   -118.86205129 </i>
    <i name="e_wo_entrp">   -118.80148441 </i>
    <i name="e_0_energy">   -118.83176785 </i>
   </energy>
  </scstep>
  <scstep>
   <time name="dav">    2.00    2.01</time>
   <time name="total">    2.27    2.27</time>
   <energy>
    <i name="e_fr_energy">   -118.86205371 </i>
    <i name="e_wo_entrp">   -118.80148683 </i>
    <i name="e_0_energy">   -118.83177027 </i>
   </energy>
  </scstep>
  <scstep>
   <time name="dav">    2.00    2.01</time>
   <time name="total">    2.27    2.28</time>
   <energy>
    <i name="e_fr_energy">   -118.86205518 </i>
    <i name="e_wo_entrp">   -118.80148875 </i>
    <i name="e_0_energy">   -118.83177197 </i>
   </energy>
  </scstep>
  <scstep>
   <time name="dav">    1.96    1.97</time>
   <time name="total">    2.23    2.24</time>
   <energy>
    <i name="e_fr_energy">   -118.86205729 </i>
    <i name="e_wo_entrp">   -118.80149107 </i>
    <i name="e_0_energy">   -118.83177418 </i>
   </energy>
  </scstep>
  <scstep>
   <time name="dav">    1.97    1.97</time>
   <time name="total">    2.01    2.02</time>
   <energy>
    <i name="alphaZ">    647.15761179 </i>
    <i name="ewald"> 310869.66523127 </i>
    <i name="hartreedc">-359803.39929574 </i>
    <i name="XCdc">   1752.87106963 </i>
    <i name="pawpsdc">  52133.12334540 </i>
    <i name="pawaedc"> -55988.56863087 </i>
    <i name="eentropy">     -0.06056637 </i>
    <i name="bandstr">  -2085.46715625 </i>
    <i name="atom">  52355.81633338 </i>
    <i name="e_fr_energy">   -118.86205777 </i>
    <i name="e_wo_entrp">   -118.80149139 </i>
    <i name="e_0_energy">   -118.83177458 </i>
   </energy>
  </scstep>
  <structure>
   <crystal>
    <varray name="basis" >
     <v>       7.66857304       0.00000000       0.00000000 </v>
     <v>       0.00000000       7.66857304       0.00000000 </v>
     <v>       0.00000000       0.00000000      29.42250000 </v>
    </varray>
    <i name="volume">   1730.24932528 </i>
    <varray name="rec_basis" >
     <v>       0.13040236       0.00000000       0.00000000 </v>
     <v>       0.00000000       0.13040236       0.00000000 </v>
     <v>       0.00000000       0.00000000       0.03398759 </v>
    </varray>
   </crystal>
   <varray name="positions" >
    <v>       0.16666667       0.16666667       0.40785113 </v>
    <v>       0.50000000       0.16666667       0.40785113 </v>
    <v>       0.83333333       0.16666667       0.40785113 </v>
    <v>       0.16666667       0.50000000       0.40785113 </v>
    <v>       0.50000000       0.50000000       0.40785113 </v>
    <v>       0.83333333       0.50000000       0.40785113 </v>
    <v>       0.16666667       0.83333333       0.40785113 </v>
    <v>       0.50000000       0.83333333       0.40785113 </v>
    <v>       0.83333333       0.83333333       0.40785113 </v>
    <v>       0.00000000       0.00000000       0.46928371 </v>
    <v>       0.33333333       0.00000000       0.46928371 </v>
    <v>       0.66666667       0.00000000       0.46928371 </v>
    <v>       0.00000000       0.33333333       0.46928371 </v>
    <v>       0.33333333       0.33333333       0.46928371 </v>
    <v>       0.66666667       0.33333333       0.46928371 </v>
    <v>       0.00000000       0.66666667       0.46928371 </v>
    <v>       0.33333333       0.66666667       0.46928371 </v>
    <v>       0.66666667       0.66666667       0.46928371 </v>
    <v>       0.16666667       0.16666667       0.53071629 </v>
    <v>       0.50000000       0.16666667       0.53071629 </v>
    <v>       0.83333333       0.16666667       0.53071629 </v>
    <v>       0.16666667       0.50000000       0.53071629 </v>
    <v>       0.50000000       0.50000000       0.53071629 </v>
    <v>       0.83333333       0.50000000       0.53071629 </v>
    <v>       0.16666667       0.83333333       0.53071629 </v>
    <v>       0.50000000       0.83333333       0.53071629 </v>
    <v>       0.83333333       0.83333333       0.53071629 </v>
    <v>       0.00000000       0.00000000       0.59214887 </v>
    <v>       0.33333333       0.00000000       0.59214887 </v>
    <v>       0.66666667       0.00000000       0.59214887 </v>
    <v>       0.00000000       0.33333333       0.59214887 </v>
    <v>       0.33333333       0.33333333       0.59214887 </v>
    <v>       0.66666667       0.33333333       0.59214887 </v>
    <v>       0.00000000       0.66666667       0.59214887 </v>
    <v>       0.33333333       0.66666667       0.59214887 </v>
    <v>       0.66666667       0.66666667       0.59214887 </v>
    <v>       0.16666667       0.23553157       0.68731413 </v>
    <v>       0.16666667       0.28443245       0.64992778 </v>
    <v>       0.16666667       0.38223422       0.64992778 </v>
    <v>       0.16666667       0.43113510       0.68731413 </v>
    <v>       0.16666667       0.83333333       0.73829552 </v>
    <v>       0.16666667       0.83333333       0.77772113 </v>
    <v>       0.50000000       0.16666667       0.73829552 </v>
    <v>       0.50000000       0.16666667       0.77772113 </v>
   </varray>
  </structure>
  <varray name="forces" >
   <v>       0.00695242       0.00070531      -0.09427283 </v>
   <v>      -0.00664053       0.04711723      -0.12193623 </v>
   <v>       0.00043445       0.04293571      -0.12111445 </v>
   <v>       0.01101193       0.00387936      -0.09241814 </v>
   <v>      -0.00682117      -0.03868259      -0.12014577 </v>
   <v>      -0.00340317      -0.03861362      -0.11885963 </v>
   <v>       0.00694100      -0.00527697      -0.09328769 </v>
   <v>      -0.01476224      -0.00909982      -0.11959052 </v>
   <v>       0.00846148      -0.00487476      -0.11802233 </v>
   <v>       0.02475494       0.00521703      -0.25592267 </v>
   <v>      -0.02950442       0.00477099      -0.25317737 </v>
   <v>       0.00564329       0.00234205      -0.19900689 </v>
   <v>      -0.00557826      -0.00513012      -0.20738979 </v>
   <v>       0.00204381      -0.00428399      -0.20818834 </v>
   <v>       0.00430434      -0.00429842      -0.31092938 </v>
   <v>       0.02424462      -0.00072464      -0.25119967 </v>
   <v>      -0.02863645      -0.00113161      -0.25032079 </v>
   <v>       0.00508508       0.00126312      -0.19379662 </v>
   <v>       0.00630185      -0.03481338      -0.02892866 </v>
   <v>      -0.03805589       0.07870385       0.23189324 </v>
   <v>       0.03241176       0.07789228       0.23229488 </v>
   <v>       0.00551672       0.03971329      -0.02958726 </v>
   <v>      -0.03870156      -0.07558593       0.23523515 </v>
   <v>       0.03389352      -0.07509607       0.23113776 </v>
   <v>       0.00436790      -0.00527162       0.18579713 </v>
   <v>      -0.04548893      -0.00378871       0.28007163 </v>
   <v>       0.04183652      -0.00378421       0.27757965 </v>
   <v>       0.03421172      -0.02439571       0.17587772 </v>
   <v>      -0.04662647      -0.02620477       0.17161513 </v>
   <v>       0.01326309      -0.01266976       0.12517764 </v>
   <v>      -0.49291916      -0.00984787      -0.10170867 </v>
   <v>       0.48868703      -0.00159764      -0.10595521 </v>
   <v>       0.00822056      -0.00237911       0.02327200 </v>
   <v>       0.03388795       0.03299699       0.17696704 </v>
   <v>      -0.03997933       0.02781509       0.17560238 </v>
   <v>       0.00684921       0.01443396       0.11952535 </v>
   <v>      -0.15901349     -13.52695400      17.79535056 </v>
   <v>       0.01265524    -218.26664011     -17.47648425 </v>
   <v>       0.00814366     218.24328742     -17.48979788 </v>
   <v>      -0.00419680      13.58253658      17.87100065 </v>
   <v>      -0.03382690      -0.02960985       1.24715171 </v>
   <v>      -0.01519334      -0.01357100      -1.24158923 </v>
   <v>       0.22283176      -0.00133639       1.28135406 </v>
   <v>      -0.04360774       0.02005242      -1.23327340 </v>
  </varray>
  <varray name="stress" >
   <v>       1.84480892       0.06870806       0.10330542 </v>
   <v>       0.06870812     171.71898885      -0.00236821 </v>
   <v>       0.10330560      -0.00236860      42.01453560 </v>
  </varray>
  <energy>
   <i name="e_fr_energy">   -118.86205777 </i>
   <i name="e_wo_entrp">   -118.80149139 </i>
   <i name="e_0_energy">   -118.83177458 </i>
  </energy>
  <time name="totalsc">  125.79  126.09</time>
 </calculation>
 <calculation>
  <scstep>
   <time name="dav">    3.66    3.66</time>
   <time name="total">    3.90    3.91</time>
   <energy>
    <i name="alphaZ">    647.15761179 </i>
    <i name="ewald"> 309132.82017623 </i>
    <i name="hartreedc">-358062.40281780 </i>
    <i name="XCdc">   1749.45576202 </i>
    <i name="pawpsdc">  52133.12852802 </i>
    <i name="pawaedc"> -55988.57416551 </i>
    <i name="eentropy">     -0.07210666 </i>
    <i name="bandstr">  -2047.99008274 </i>
    <i name="atom">  52355.81633338 </i>
    <i name="e_fr_energy">    -80.66076126 </i>
    <i name="e_wo_entrp">    -80.58865460 </i>
    <i name="e_0_energy">    -80.62470793 </i>
   </energy>
  </scstep>
  <scstep>
   <time name="dav">    4.39    4.40</time>
   <time name="total">    4.64    4.65</time>
   <energy>
    <i name="e_fr_energy">   -179.32481389 </i>
    <i name="e_wo_entrp">   -179.25836043 </i>
    <i name="e_0_energy">   -179.29158716 </i>
   </energy>
  </scstep>
  <scstep>
   <time name="dav">    3.81    3.82</time>
   <time name="total">    4.07    4.08</time>
   <energy>
    <i name="e_fr_energy">   -161.32827700 </i>
    <i name="e_wo_entrp">   -161.27353876 </i>
    <i name="e_0_energy">   -161.30090788 </i>
   </energy>
  </scstep>
  <scstep>
   <time name="dav">    3.84    3.85</time>
   <time name="total">    4.09    4.10</time>
   <energy>
    <i name="e_fr_energy">   -153.89527589 </i>
    <i name="e_wo_entrp">   -153.82438486 </i>
    <i name="e_0_energy">   -153.85983038 </i>
   </energy>
  </scstep>
  <scstep>
   <time name="dav">    3.66    3.67</time>
   <time name="total">    3.91    3.92</time>
   <energy>
    <i name="e_fr_energy">   -178.35934918 </i>
    <i name="e_wo_entrp">   -178.28309031 </i>
    <i name="e_0_energy">   -178.32121974 </i>
   </energy>
  </scstep>
  <scstep>
   <time name="dav">    3.62    3.63</time>
   <time name="total">    3.87    3.88</time>
   <energy>
    <i name="e_fr_energy">   -159.96914353 </i>
    <i name="e_wo_entrp">   -159.89174546 </i>
    <i name="e_0_energy">   -159.93044449 </i>
   </energy>
  </scstep>
  <scstep>
   <time name="dav">    4.03    4.04</time>
   <time name="total">    4.28    4.29</time>
   <energy>
    <i name="e_fr_energy">   -157.96981487 </i>
    <i name="e_wo_entrp">   -157.90689398 </i>
    <i name="e_0_energy">   -157.93835443 </i>
   </energy>
  </scstep>
  <scstep>
   <time name="dav">    3.83    3.83</time>
   <time name="total">    4.07    4.08</time>
   <energy>
    <i name="e_fr_energy">   -150.33576294 </i>
    <i name="e_wo_entrp">   -150.27456028 </i>
    <i name="e_0_energy">   -150.30516161 </i>
   </energy>
  </scstep>
  <scstep>
   <time name="dav">    3.92    3.93</time>
   <time name="total">    4.17    4.18</time>
   <energy>
    <i name="e_fr_energy">   -149.53612173 </i>
    <i name="e_wo_entrp">   -149.36262999 </i>
    <i name="e_0_energy">   -149.44937586 </i>
   </energy>
  </scstep>
  <scstep>
   <time name="dav">    3.09    3.10</time>
   <time name="total">    3.34    3.35</time>
   <energy>
    <i name="e_fr_energy">   -149.63351091 </i>
    <i name="e_wo_entrp">   -149.51178588 </i>
    <i name="e_0_energy">   -149.57264839 </i>
   </energy>
  </scstep>
  <scstep>
   <time name="dav">    3.73    3.73</time>
   <time name="total">    3.97    3.98</time>
   <energy>
    <i name="e_fr_energy">   -149.68475657 </i>
    <i name="e_wo_entrp">   -149.60952581 </i>
    <i name="e_0_energy">   -149.64714119 </i>
   </energy>
  </scstep>
  <scstep>
   <time name="dav">    3.70    3.70</time>
   <time name="total">    3.95    3.96</time>
   <energy>
    <i name="e_fr_energy">   -149.74145757 </i>
    <i name="e_wo_entrp">   -149.67127057 </i>
    <i name="e_0_energy">   -149.70636407 </i>
   </energy>
  </scstep>
  <scstep>
   <time name="dav">    4.31    4.32</time>
   <time name="total">    4.57    4.58</time>
   <energy>
    <i name="e_fr_energy">   -149.26780152 </i>
    <i name="e_wo_entrp">   -149.09834359 </i>
    <i name="e_0_energy">   -149.18307255 </i>
   </energy>
  </scstep>
  <scstep>
   <time name="dav">    3.95    3.96</time>
   <time name="total">    4.23    4.23</time>
   <energy>
    <i name="e_fr_energy">   -149.19696614 </i>
    <i name="e_wo_entrp">   -149.04779824 </i>
    <i name="e_0_energy">   -149.12238219 </i>
   </energy>
  </scstep>
  <scstep>
   <time name="dav">    3.40    3.41</time>
   <time name="total">    3.66    3.66</time>
   <energy>
    <i name="e_fr_energy">   -149.17399630 </i>
    <i name="e_wo_entrp">   -149.00233830 </i>
    <i name="e_0_energy">   -149.08816730 </i>
   </energy>
  </scstep>
  <scstep>
   <time name="dav">    3.94    3.95</time>
   <time name="total">    4.20    4.20</time>
   <energy>
    <i name="e_fr_energy">   -149.16118468 </i>
    <i name="e_wo_entrp">   -148.98645306 </i>
    <i name="e_0_energy">   -149.07381887 </i>
   </energy>
  </scstep>
  <scstep>
   <time name="dav">    3.81    3.81</time>
   <time name="total">    4.06    4.07</time>
   <energy>
    <i name="e_fr_energy">   -149.16312126 </i>
    <i name="e_wo_entrp">   -148.99437233 </i>
    <i name="e_0_energy">   -149.07874679 </i>
   </energy>
  </scstep>
  <scstep>
   <time name="dav">    3.31    3.32</time>
   <time name="total">    3.57    3.57</time>
   <energy>
    <i name="e_fr_energy">   -149.17364542 </i>
    <i name="e_wo_entrp">   -149.00529102 </i>
    <i name="e_0_energy">   -149.08946822 </i>
   </energy>
  </scstep>
  <scstep>
   <time name="dav">    3.78    3.79</time>
   <time name="total">    4.04    4.05</time>
   <energy>
    <i name="e_fr_energy">   -149.17627105 </i>
    <i name="e_wo_entrp">   -149.00185179 </i>
    <i name="e_0_energy">   -149.08906142 </i>
   </energy>
  </scstep>
  <scstep>
   <time name="dav">    3.59    3.60</time>
   <time name="total">    3.85    3.86</time>
   <energy>
    <i name="e_fr_energy">   -149.17807494 </i>
    <i name="e_wo_entrp">   -149.00381955 </i>
    <i name="e_0_energy">   -149.09094725 </i>
   </energy>
  </scstep>
  <scstep>
   <time name="dav">    3.72    3.73</time>
   <time name="total">    3.98    3.99</time>
   <energy>
    <i name="e_fr_energy">   -149.17875142 </i>
    <i name="e_wo_entrp">   -149.00516816 </i>
    <i name="e_0_energy">   -149.09195979 </i>
   </energy>
  </scstep>
  <scstep>
   <time name="dav">    3.69    3.70</time>
   <time name="total">    3.95    3.96</time>
   <energy>
    <i name="e_fr_energy">   -149.17963172 </i>
    <i name="e_wo_entrp">   -149.00482039 </i>
    <i name="e_0_energy">   -149.09222606 </i>
   </energy>
  </scstep>
  <scstep>
   <time name="dav">    3.58    3.59</time>
   <time name="total">    3.84    3.85</time>
   <energy>
    <i name="e_fr_energy">   -149.18014869 </i>
    <i name="e_wo_entrp">   -149.00941829 </i>
    <i name="e_0_energy">   -149.09478349 </i>
   </energy>
  </scstep>
  <scstep>
   <time name="dav">    3.73    3.74</time>
   <time name="total">    3.99    4.00</time>
   <energy>
    <i name="e_fr_energy">   -149.18039778 </i>
    <i name="e_wo_entrp">   -149.00662489 </i>
    <i name="e_0_energy">   -149.09351133 </i>
   </energy>
  </scstep>
  <scstep>
   <time name="dav">    3.57    3.57</time>
   <time name="total">    3.83    3.84</time>
   <energy>
    <i name="e_fr_energy">   -149.18067650 </i>
    <i name="e_wo_entrp">   -149.00853743 </i>
    <i name="e_0_energy">   -149.09460696 </i>
   </energy>
  </scstep>
  <scstep>
   <time name="dav">    3.16    3.17</time>
   <time name="total">    3.42    3.43</time>
   <energy>
    <i name="e_fr_energy">   -149.18103018 </i>
    <i name="e_wo_entrp">   -149.00877616 </i>
    <i name="e_0_energy">   -149.09490317 </i>
   </energy>
  </scstep>
  <scstep>
   <time name="dav">    3.09    3.09</time>
   <time name="total">    3.35    3.36</time>
   <energy>
    <i name="e_fr_energy">   -149.18134327 </i>
    <i name="e_wo_entrp">   -149.00865158 </i>
    <i name="e_0_energy">   -149.09499743 </i>
   </energy>
  </scstep>
  <scstep>
   <time name="dav">    3.14    3.14</time>
   <time name="total">    3.40    3.41</time>
   <energy>
    <i name="e_fr_energy">   -149.18147932 </i>
    <i name="e_wo_entrp">   -149.00925335 </i>
    <i name="e_0_energy">   -149.09536634 </i>
   </energy>
  </scstep>
  <scstep>
   <time name="dav">    2.48    2.48</time>
   <time name="total">    2.74    2.75</time>
   <energy>
    <i name="e_fr_energy">   -149.18153694 </i>
    <i name="e_wo_entrp">   -149.00906709 </i>
    <i name="e_0_energy">   -149.09530202 </i>
   </energy>
  </scstep>
  <scstep>
   <time name="dav">    2.35    2.35</time>
   <time name="total">    2.61    2.62</time>
   <energy>
    <i name="e_fr_energy">   -149.18158767 </i>
    <i name="e_wo_entrp">   -149.00891782 </i>
    <i name="e_0_energy">   -149.09525274 </i>
   </energy>
  </scstep>
  <scstep>
   <time name="dav">    2.29    2.29</time>
   <time name="total">    2.55    2.56</time>
   <energy>
    <i name="e_fr_energy">   -149.18162014 </i>
    <i name="e_wo_entrp">   -149.00902753 </i>
    <i name="e_0_energy">   -149.09532383 </i>
   </energy>
  </scstep>
  <scstep>
   <time name="dav">    2.18    2.18</time>
   <time name="total">    2.45    2.45</time>
   <energy>
    <i name="e_fr_energy">   -149.18163242 </i>
    <i name="e_wo_entrp">   -149.00908071 </i>
    <i name="e_0_energy">   -149.09535656 </i>
   </energy>
  </scstep>
  <scstep>
   <time name="dav">    2.07    2.08</time>
   <time name="total">    2.34    2.35</time>
   <energy>
    <i name="e_fr_energy">   -149.18164273 </i>
    <i name="e_wo_entrp">   -149.00900016 </i>
    <i name="e_0_energy">   -149.09532145 </i>
   </energy>
  </scstep>
  <scstep>
   <time name="dav">    2.11    2.11</time>
   <time name="total">    2.38    2.39</time>
   <energy>
    <i name="e_fr_energy">   -149.18164687 </i>
    <i name="e_wo_entrp">   -149.00903361 </i>
    <i name="e_0_energy">   -149.09534024 </i>
   </energy>
  </scstep>
  <scstep>
   <time name="dav">    2.02    2.03</time>
   <time name="total">    2.29    2.30</time>
   <energy>
    <i name="e_fr_energy">   -149.18165013 </i>
    <i name="e_wo_entrp">   -149.00907204 </i>
    <i name="e_0_energy">   -149.09536108 </i>
   </energy>
  </scstep>
  <scstep>
   <time name="dav">    2.01    2.01</time>
   <time name="total">    2.29    2.29</time>
   <energy>
    <i name="e_fr_energy">   -149.18165262 </i>
    <i name="e_wo_entrp">   -149.00904427 </i>
    <i name="e_0_energy">   -149.09534844 </i>
   </energy>
  </scstep>
  <scstep>
   <time name="dav">    2.04    2.04</time>
   <time name="total">    2.31    2.32</time>
   <energy>
    <i name="e_fr_energy">   -149.18165468 </i>
    <i name="e_wo_entrp">   -149.00910611 </i>
    <i name="e_0_energy">   -149.09538039 </i>
   </energy>
  </scstep>
  <scstep>
   <time name="dav">    1.98    1.99</time>
   <time name="total">    2.26    2.26</time>
   <energy>
    <i name="e_fr_energy">   -149.18165579 </i>
    <i name="e_wo_entrp">   -149.00908552 </i>
    <i name="e_0_energy">   -149.09537065 </i>
   </energy>
  </scstep>
  <scstep>
   <time name="dav">    1.95    1.96</time>
   <time name="total">    2.00    2.01</time>
   <energy>
    <i name="alphaZ">    647.15761179 </i>
    <i name="ewald"> 309132.82017623 </i>
    <i name="hartreedc">-357837.89054216 </i>
    <i name="XCdc">   1747.02330033 </i>
    <i name="pawpsdc">  50978.48726581 </i>
    <i name="pawaedc"> -54839.84623197 </i>
    <i name="eentropy">     -0.17258063 </i>
    <i name="bandstr">  -2332.57698905 </i>
    <i name="atom">  52355.81633338 </i>
    <i name="e_fr_energy">   -149.18165626 </i>
    <i name="e_wo_entrp">   -149.00907563 </i>
    <i name="e_0_energy">   -149.09536595 </i>
   </energy>
  </scstep>
  <structure>
   <crystal>
    <varray name="basis" >
     <v>       7.66857304       0.00000000       0.00000000 </v>
     <v>       0.00000000       7.66857304       0.00000000 </v>
     <v>       0.00000000       0.00000000      29.42250000 </v>
    </varray>
    <i name="volume">   1730.24932528 </i>
    <varray name="rec_basis" >
     <v>       0.13040236       0.00000000       0.00000000 </v>
     <v>       0.00000000       0.13040236       0.00000000 </v>
     <v>       0.00000000       0.00000000       0.03398759 </v>
    </varray>
   </crystal>
   <varray name="positions" >
    <v>       0.16666667       0.16666667       0.40785113 </v>
    <v>       0.50000000       0.16666667       0.40785113 </v>
    <v>       0.83333333       0.16666667       0.40785113 </v>
    <v>       0.16666667       0.50000000       0.40785113 </v>
    <v>       0.50000000       0.50000000       0.40785113 </v>
    <v>       0.83333333       0.50000000       0.40785113 </v>
    <v>       0.16666667       0.83333333       0.40785113 </v>
    <v>       0.50000000       0.83333333       0.40785113 </v>
    <v>       0.83333333       0.83333333       0.40785113 </v>
    <v>       0.00000000       0.00000000       0.46928371 </v>
    <v>       0.33333333       0.00000000       0.46928371 </v>
    <v>       0.66666667       0.00000000       0.46928371 </v>
    <v>       0.00000000       0.33333333       0.46928371 </v>
    <v>       0.33333333       0.33333333       0.46928371 </v>
    <v>       0.66666667       0.33333333       0.46928371 </v>
    <v>       0.00000000       0.66666667       0.46928371 </v>
    <v>       0.33333333       0.66666667       0.46928371 </v>
    <v>       0.66666667       0.66666667       0.46928371 </v>
    <v>       0.16670631       0.16644766       0.53066886 </v>
    <v>       0.49976059       0.16716179       0.53109651 </v>
    <v>       0.83353723       0.16715668       0.53109717 </v>
    <v>       0.16670137       0.50024983       0.53066778 </v>
    <v>       0.49975653       0.49952449       0.53110199 </v>
    <v>       0.83354656       0.49952757       0.53109527 </v>
    <v>       0.16669414       0.83330017       0.53102093 </v>
    <v>       0.49971383       0.83330950       0.53117551 </v>
    <v>       0.83359653       0.83330953       0.53117142 </v>
    <v>       0.00021522       0.99984653       0.59243724 </v>
    <v>       0.33304001       0.99983515       0.59243025 </v>
    <v>       0.66675010       0.99992030       0.59235411 </v>
    <v>       0.99689907       0.33327138       0.59198210 </v>
    <v>       0.33640764       0.33332328       0.59197514 </v>
    <v>       0.66671838       0.33331837       0.59218702 </v>
    <v>       0.00021319       0.66687425       0.59243903 </v>
    <v>       0.33308183       0.66684165       0.59243679 </v>
    <v>       0.66670975       0.66675747       0.59234485 </v>
    <v>       0.16566632       0.15043410       0.71649231 </v>
    <v>       0.16674628       0.91132666       0.62127243 </v>
    <v>       0.16671790       0.75519309       0.62125060 </v>
    <v>       0.16664026       0.51658224       0.71661635 </v>
    <v>       0.16645386       0.83314706       0.74034042 </v>
    <v>       0.16657109       0.83324796       0.77568536 </v>
    <v>       0.50140182       0.16665826       0.74039650 </v>
    <v>       0.49972567       0.16679282       0.77569899 </v>
   </varray>
  </structure>
  <varray name="forces" >
   <v>       0.00658140      -0.00081059      -0.07717455 </v>
   <v>      -0.00211564       0.00585045      -0.08737501 </v>
   <v>      -0.00211920       0.00082919      -0.08871971 </v>
   <v>       0.01032605       0.00623107      -0.07560916 </v>
   <v>      -0.00218726       0.00391248      -0.08639527 </v>
   <v>      -0.00569368       0.00459188      -0.08537377 </v>
   <v>       0.00568376      -0.00467147      -0.10339752 </v>
   <v>       0.00481656      -0.00904415      -0.07288026 </v>
   <v>      -0.00793685      -0.00469866      -0.07341609 </v>
   <v>       0.00461849       0.00985606      -0.18473884 </v>
   <v>      -0.00741118       0.00940846      -0.18122420 </v>
   <v>       0.00567286      -0.03676100      -0.25369394 </v>
   <v>      -0.01200321      -0.00531443      -0.28695116 </v>
   <v>       0.00968099      -0.00354374      -0.28813400 </v>
   <v>       0.00495589      -0.00329281      -0.18954852 </v>
   <v>       0.00467188      -0.00402689      -0.18077519 </v>
   <v>      -0.00605983      -0.00496345      -0.17896862 </v>
   <v>       0.00390553       0.04076004      -0.24998342 </v>
   <v>       0.00314360       0.22846872       0.00533342 </v>
   <v>       0.00618125      -0.07862576       0.15319827 </v>
   <v>      -0.00563942      -0.07778100       0.15061089 </v>
   <v>       0.00239604      -0.22491303       0.00595882 </v>
   <v>       0.00508767       0.07650155       0.15349910 </v>
   <v>      -0.00497863       0.07860984       0.15275246 </v>
   <v>       0.00139023      -0.00209679      -0.71268700 </v>
   <v>       0.17186388       0.00109265       0.00840795 </v>
   <v>      -0.17090522      -0.00136776       0.00632139 </v>
   <v>      -4.14858697       2.78356914      -1.96831371 </v>
   <v>       4.16944392       2.79723763      -1.99653877 </v>
   <v>       0.00675424       0.07613198      -0.02037724 </v>
   <v>       0.03219995      -0.00222016       0.13391372 </v>
   <v>      -0.03948788      -0.00631772       0.13326084 </v>
   <v>       0.00506616      -0.00316360       0.17305173 </v>
   <v>      -4.17887672      -2.78750576      -1.98880969 </v>
   <v>       4.19380077      -2.80071935      -2.00209188 </v>
   <v>       0.00362153      -0.07299121      -0.03813323 </v>
   <v>      -0.10051626       0.84725969      -0.25399757 </v>
   <v>      -0.03884975       5.71669649       5.36220384 </v>
   <v>      -0.01285579      -5.70210908       5.39461471 </v>
   <v>      -0.04519595      -0.78869212      -0.24160368 </v>
   <v>      -0.05852345      -0.09887862     -17.86710593 </v>
   <v>       0.00426409       0.02080397      18.01157320 </v>
   <v>       0.42820770      -0.03322673     -18.27891104 </v>
   <v>      -0.24439154       0.04992460      18.26822863 </v>
  </varray>
  <varray name="stress" >
   <v>      24.54320513       0.05878695      -0.16915227 </v>
   <v>       0.05878714      20.45139733       0.05693790 </v>
   <v>      -0.16915317       0.05693788      50.06806052 </v>
  </varray>
  <energy>
   <i name="e_fr_energy">   -149.18165626 </i>
   <i name="e_wo_entrp">   -149.00907563 </i>
   <i name="e_0_energy">   -149.09536595 </i>
  </energy>
  <time name="totalsc">  140.50  140.80</time>
 </calculation>
 <calculation>
  <scstep>
   <time name="dav">    2.83    2.84</time>
   <time name="total">    3.07    3.08</time>
   <energy>
    <i name="alphaZ">    647.15761179 </i>
    <i name="ewald"> 309135.85824307 </i>
    <i name="hartreedc">-357846.67404620 </i>
    <i name="XCdc">   1746.11848745 </i>
    <i name="pawpsdc">  50978.48703259 </i>
    <i name="pawaedc"> -54839.84602810 </i>
    <i name="eentropy">     -0.13193682 </i>
    <i name="bandstr">  -2322.39049708 </i>
    <i name="atom">  52355.81633338 </i>
    <i name="e_fr_energy">   -145.60479993 </i>
    <i name="e_wo_entrp">   -145.47286311 </i>
    <i name="e_0_energy">   -145.53883152 </i>
   </energy>
  </scstep>
  <scstep>
   <time name="dav">    4.81    4.82</time>
   <time name="total">    5.06    5.07</time>
   <energy>
    <i name="e_fr_energy">   -158.18382733 </i>
    <i name="e_wo_entrp">   -158.14111426 </i>
    <i name="e_0_energy">   -158.16247080 </i>
   </energy>
  </scstep>
  <scstep>
   <time name="dav">    4.05    4.05</time>
   <time name="total">    4.30    4.30</time>
   <energy>
    <i name="e_fr_energy">   -151.89326490 </i>
    <i name="e_wo_entrp">   -151.83349709 </i>
    <i name="e_0_energy">   -151.86338100 </i>
   </energy>
  </scstep>
  <scstep>
   <time name="dav">    3.88    3.89</time>
   <time name="total">    4.13    4.14</time>
   <energy>
    <i name="e_fr_energy">   -146.91293352 </i>
    <i name="e_wo_entrp">   -146.76210584 </i>
    <i name="e_0_energy">   -146.83751968 </i>
   </energy>
  </scstep>
  <scstep>
   <time name="dav">    4.71    4.72</time>
   <time name="total">    4.96    4.97</time>
   <energy>
    <i name="e_fr_energy">   -146.99469830 </i>
    <i name="e_wo_entrp">   -146.84527695 </i>
    <i name="e_0_energy">   -146.91998763 </i>
   </energy>
  </scstep>
  <scstep>
   <time name="dav">    3.81    3.82</time>
   <time name="total">    4.06    4.07</time>
   <energy>
    <i name="e_fr_energy">   -146.69234153 </i>
    <i name="e_wo_entrp">   -146.55246770 </i>
    <i name="e_0_energy">   -146.62240462 </i>
   </energy>
  </scstep>
  <scstep>
   <time name="dav">    3.42    3.43</time>
   <time name="total">    3.67    3.68</time>
   <energy>
    <i name="e_fr_energy">   -146.60377164 </i>
    <i name="e_wo_entrp">   -146.45254780 </i>
    <i name="e_0_energy">   -146.52815972 </i>
   </energy>
  </scstep>
  <scstep>
   <time name="dav">    3.53    3.54</time>
   <time name="total">    3.78    3.79</time>
   <energy>
    <i name="e_fr_energy">   -146.73232724 </i>
    <i name="e_wo_entrp">   -146.57224244 </i>
    <i name="e_0_energy">   -146.65228484 </i>
   </energy>
  </scstep>
  <scstep>
   <time name="dav">    4.07    4.08</time>
   <time name="total">    4.33    4.34</time>
   <energy>
    <i name="e_fr_energy">   -146.55320971 </i>
    <i name="e_wo_entrp">   -146.39791735 </i>
    <i name="e_0_energy">   -146.47556353 </i>
   </energy>
  </scstep>
  <scstep>
   <time name="dav">    4.11    4.12</time>
   <time name="total">    4.36    4.37</time>
   <energy>
    <i name="e_fr_energy">   -146.51605754 </i>
    <i name="e_wo_entrp">   -146.36437321 </i>
    <i name="e_0_energy">   -146.44021537 </i>
   </energy>
  </scstep>
  <scstep>
   <time name="dav">    3.72    3.73</time>
   <time name="total">    3.97    3.98</time>
   <energy>
    <i name="e_fr_energy">   -146.52086723 </i>
    <i name="e_wo_entrp">   -146.37421990 </i>
    <i name="e_0_energy">   -146.44754357 </i>
   </energy>
  </scstep>
  <scstep>
   <time name="dav">    3.65    3.66</time>
   <time name="total">    3.90    3.91</time>
   <energy>
    <i name="e_fr_energy">   -146.51732181 </i>
    <i name="e_wo_entrp">   -146.36690203 </i>
    <i name="e_0_energy">   -146.44211192 </i>
   </energy>
  </scstep>
  <scstep>
   <time name="dav">    3.35    3.36</time>
   <time name="total">    3.60    3.61</time>
   <energy>
    <i name="e_fr_energy">   -146.51692739 </i>
    <i name="e_wo_entrp">   -146.36575272 </i>
    <i name="e_0_energy">   -146.44134006 </i>
   </energy>
  </scstep>
  <scstep>
   <time name="dav">    3.76    3.77</time>
   <time name="total">    4.02    4.03</time>
   <energy>
    <i name="e_fr_energy">   -146.51687857 </i>
    <i name="e_wo_entrp">   -146.36518313 </i>
    <i name="e_0_energy">   -146.44103085 </i>
   </energy>
  </scstep>
  <scstep>
   <time name="dav">    3.43    3.44</time>
   <time name="total">    3.69    3.69</time>
   <energy>
    <i name="e_fr_energy">   -146.51679042 </i>
    <i name="e_wo_entrp">   -146.36577617 </i>
    <i name="e_0_energy">   -146.44128330 </i>
   </energy>
  </scstep>
  <scstep>
   <time name="dav">    3.42    3.43</time>
   <time name="total">    3.68    3.68</time>
   <energy>
    <i name="e_fr_energy">   -146.51676705 </i>
    <i name="e_wo_entrp">   -146.36624245 </i>
    <i name="e_0_energy">   -146.44150475 </i>
   </energy>
  </scstep>
  <scstep>
   <time name="dav">    3.29    3.30</time>
   <time name="total">    3.55    3.56</time>
   <energy>
    <i name="e_fr_energy">   -146.51674446 </i>
    <i name="e_wo_entrp">   -146.36613358 </i>
    <i name="e_0_energy">   -146.44143902 </i>
   </energy>
  </scstep>
  <scstep>
   <time name="dav">    3.43    3.44</time>
   <time name="total">    3.69    3.69</time>
   <energy>
    <i name="e_fr_energy">   -146.51675585 </i>
    <i name="e_wo_entrp">   -146.36593028 </i>
    <i name="e_0_energy">   -146.44134306 </i>
   </energy>
  </scstep>
  <scstep>
   <time name="dav">    3.21    3.21</time>
   <time name="total">    3.47    3.47</time>
   <energy>
    <i name="e_fr_energy">   -146.51676976 </i>
    <i name="e_wo_entrp">   -146.36592348 </i>
    <i name="e_0_energy">   -146.44134662 </i>
   </energy>
  </scstep>
  <scstep>
   <time name="dav">    3.08    3.09</time>
   <time name="total">    3.34    3.35</time>
   <energy>
    <i name="e_fr_energy">   -146.51677293 </i>
    <i name="e_wo_entrp">   -146.36597625 </i>
    <i name="e_0_energy">   -146.44137459 </i>
   </energy>
  </scstep>
  <scstep>
   <time name="dav">    2.23    2.24</time>
   <time name="total">    2.50    2.50</time>
   <energy>
    <i name="e_fr_energy">   -146.51677701 </i>
    <i name="e_wo_entrp">   -146.36597572 </i>
    <i name="e_0_energy">   -146.44137637 </i>
   </energy>
  </scstep>
  <scstep>
   <time name="dav">    2.10    2.11</time>
   <time name="total">    2.37    2.37</time>
   <energy>
    <i name="e_fr_energy">   -146.51678233 </i>
    <i name="e_wo_entrp">   -146.36599505 </i>
    <i name="e_0_energy">   -146.44138869 </i>
   </energy>
  </scstep>
  <scstep>
   <time name="dav">    2.07    2.08</time>
   <time name="total">    2.34    2.34</time>
   <energy>
    <i name="e_fr_energy">   -146.51678636 </i>
    <i name="e_wo_entrp">   -146.36600927 </i>
    <i name="e_0_energy">   -146.44139781 </i>
   </energy>
  </scstep>
  <scstep>
   <time name="dav">    2.06    2.07</time>
   <time name="total">    2.32    2.33</time>
   <energy>
    <i name="e_fr_energy">   -146.51678951 </i>
    <i name="e_wo_entrp">   -146.36599329 </i>
    <i name="e_0_energy">   -146.44139140 </i>
   </energy>
  </scstep>
  <scstep>
   <time name="dav">    2.07    2.08</time>
   <time name="total">    2.33    2.34</time>
   <energy>
    <i name="e_fr_energy">   -146.51679358 </i>
    <i name="e_wo_entrp">   -146.36598242 </i>
    <i name="e_0_energy">   -146.44138800 </i>
   </energy>
  </scstep>
  <scstep>
   <time name="dav">    2.06    2.06</time>
   <time name="total">    2.33    2.33</time>
   <energy>
    <i name="e_fr_energy">   -146.51679599 </i>
    <i name="e_wo_entrp">   -146.36600684 </i>
    <i name="e_0_energy">   -146.44140141 </i>
   </energy>
  </scstep>
  <scstep>
   <time name="dav">    2.02    2.02</time>
   <time name="total">    2.28    2.29</time>
   <energy>
    <i name="e_fr_energy">   -146.51679769 </i>
    <i name="e_wo_entrp">   -146.36600942 </i>
    <i name="e_0_energy">   -146.44140356 </i>
   </energy>
  </scstep>
  <scstep>
   <time name="dav">    2.03    2.03</time>
   <time name="total">    2.07    2.08</time>
   <energy>
    <i name="alphaZ">    647.15761179 </i>
    <i name="ewald"> 309135.85824307 </i>
    <i name="hartreedc">-357810.91203679 </i>
    <i name="XCdc">   1744.85325104 </i>
    <i name="pawpsdc">  50674.32998498 </i>
    <i name="pawaedc"> -54538.49295010 </i>
    <i name="eentropy">     -0.15079065 </i>
    <i name="bandstr">  -2354.97644504 </i>
    <i name="atom">  52355.81633338 </i>
    <i name="e_fr_energy">   -146.51679832 </i>
    <i name="e_wo_entrp">   -146.36600766 </i>
    <i name="e_0_energy">   -146.44140299 </i>
   </energy>
  </scstep>
  <structure>
   <crystal>
    <varray name="basis" >
     <v>       7.66857304       0.00000000       0.00000000 </v>
     <v>       0.00000000       7.66857304       0.00000000 </v>
     <v>       0.00000000       0.00000000      29.42250000 </v>
    </varray>
    <i name="volume">   1730.24932528 </i>
    <varray name="rec_basis" >
     <v>       0.13040236       0.00000000       0.00000000 </v>
     <v>       0.00000000       0.13040236       0.00000000 </v>
     <v>       0.00000000       0.00000000       0.03398759 </v>
    </varray>
   </crystal>
   <varray name="positions" >
    <v>       0.16666667       0.16666667       0.40785113 </v>
    <v>       0.50000000       0.16666667       0.40785113 </v>
    <v>       0.83333333       0.16666667       0.40785113 </v>
    <v>       0.16666667       0.50000000       0.40785113 </v>
    <v>       0.50000000       0.50000000       0.40785113 </v>
    <v>       0.83333333       0.50000000       0.40785113 </v>
    <v>       0.16666667       0.83333333       0.40785113 </v>
    <v>       0.50000000       0.83333333       0.40785113 </v>
    <v>       0.83333333       0.83333333       0.40785113 </v>
    <v>       0.00000000       0.00000000       0.46928371 </v>
    <v>       0.33333333       0.00000000       0.46928371 </v>
    <v>       0.66666667       0.00000000       0.46928371 </v>
    <v>       0.00000000       0.33333333       0.46928371 </v>
    <v>       0.33333333       0.33333333       0.46928371 </v>
    <v>       0.66666667       0.33333333       0.46928371 </v>
    <v>       0.00000000       0.66666667       0.46928371 </v>
    <v>       0.33333333       0.66666667       0.46928371 </v>
    <v>       0.66666667       0.66666667       0.46928371 </v>
    <v>       0.16670520       0.16645382       0.53067019 </v>
    <v>       0.49976733       0.16714786       0.53108582 </v>
    <v>       0.83353150       0.16714290       0.53108646 </v>
    <v>       0.16670040       0.50024281       0.53066914 </v>
    <v>       0.49976338       0.49953787       0.53109114 </v>
    <v>       0.83354056       0.49954086       0.53108461 </v>
    <v>       0.16669337       0.83330110       0.53101236 </v>
    <v>       0.49972188       0.83331017       0.53116259 </v>
    <v>       0.83358912       0.83331020       0.53115862 </v>
    <v>       0.00020917       0.99985084       0.59242913 </v>
    <v>       0.33304826       0.99983978       0.59242234 </v>
    <v>       0.66674776       0.99992254       0.59234834 </v>
    <v>       0.99698629       0.33327312       0.59198679 </v>
    <v>       0.33632117       0.33332357       0.59198002 </v>
    <v>       0.66671693       0.33331879       0.59218595 </v>
    <v>       0.00020719       0.66686841       0.59243087 </v>
    <v>       0.33308890       0.66683673       0.59242869 </v>
    <v>       0.66670854       0.66675492       0.59233933 </v>
    <v>       0.16569446       0.15282767       0.71567160 </v>
    <v>       0.16674404       0.94994855       0.62207843 </v>
    <v>       0.16671646       0.71657534       0.62205721 </v>
    <v>       0.16664101       0.51417883       0.71579215 </v>
    <v>       0.16645985       0.83315230       0.74028290 </v>
    <v>       0.16657377       0.83325036       0.77574262 </v>
    <v>       0.50136240       0.16665850       0.74033740 </v>
    <v>       0.49973338       0.16678927       0.77575587 </v>
   </varray>
  </structure>
  <varray name="forces" >
   <v>       0.00619357      -0.01565631      -0.09827591 </v>
   <v>      -0.01559938      -0.01308542      -0.07872137 </v>
   <v>       0.01045218      -0.01819135      -0.07963441 </v>
   <v>       0.00906751       0.02216136      -0.09687864 </v>
   <v>      -0.01425207       0.02346833      -0.07639835 </v>
   <v>       0.00666802       0.02440849      -0.07696414 </v>
   <v>       0.00477081      -0.00484022      -0.10375071 </v>
   <v>      -0.00036490      -0.00892534      -0.10473988 </v>
   <v>      -0.00299431      -0.00515255      -0.10538458 </v>
   <v>      -0.00328039      -0.00009828      -0.21924039 </v>
   <v>      -0.00046237      -0.00093506      -0.21526815 </v>
   <v>       0.00552694      -0.00423091      -0.24296098 </v>
   <v>      -0.01218374      -0.00568856      -0.25982713 </v>
   <v>       0.00905583      -0.00348207      -0.26053394 </v>
   <v>       0.00457497      -0.00248358      -0.20143350 </v>
   <v>      -0.00245326       0.00700752      -0.21601301 </v>
   <v>       0.00064197       0.00556881      -0.21378590 </v>
   <v>       0.00305429       0.00817925      -0.24034435 </v>
   <v>       0.00234561       0.23517273      -0.03808347 </v>
   <v>       0.03879038      -0.04046965       0.09155324 </v>
[...]
    <i name="e_0_energy">   -161.51555536 </i>
   </energy>
  </scstep>
  <scstep>
   <time name="dav">    4.08    4.09</time>
   <time name="total">    4.33    4.34</time>
   <energy>
    <i name="e_fr_energy">   -161.54950542 </i>
    <i name="e_wo_entrp">   -161.48165948 </i>
    <i name="e_0_energy">   -161.51558245 </i>
   </energy>
  </scstep>
  <scstep>
   <time name="dav">    3.43    3.44</time>
   <time name="total">    3.68    3.69</time>
   <energy>
    <i name="e_fr_energy">   -161.54949137 </i>
    <i name="e_wo_entrp">   -161.48159484 </i>
    <i name="e_0_energy">   -161.51554310 </i>
   </energy>
  </scstep>
  <scstep>
   <time name="dav">    3.55    3.55</time>
   <time name="total">    3.80    3.81</time>
   <energy>
    <i name="e_fr_energy">   -161.54949138 </i>
    <i name="e_wo_entrp">   -161.48161526 </i>
    <i name="e_0_energy">   -161.51555332 </i>
   </energy>
  </scstep>
  <scstep>
   <time name="dav">    3.21    3.22</time>
   <time name="total">    3.46    3.46</time>
   <energy>
    <i name="e_fr_energy">   -161.54949141 </i>
    <i name="e_wo_entrp">   -161.48163657 </i>
    <i name="e_0_energy">   -161.51556399 </i>
   </energy>
  </scstep>
  <scstep>
   <time name="dav">    3.01    3.02</time>
   <time name="total">    3.06    3.07</time>
   <energy>
    <i name="alphaZ">    647.15761179 </i>
    <i name="ewald"> 301651.23223387 </i>
    <i name="hartreedc">-350613.63764557 </i>
    <i name="XCdc">   1743.91336405 </i>
    <i name="pawpsdc">  49895.79137909 </i>
    <i name="pawaedc"> -53748.59147084 </i>
    <i name="eentropy">     -0.06782236 </i>
    <i name="bandstr">  -2093.16347460 </i>
    <i name="atom">  52355.81633338 </i>
    <i name="e_fr_energy">   -161.54949119 </i>
    <i name="e_wo_entrp">   -161.48166883 </i>
    <i name="e_0_energy">   -161.51558001 </i>
   </energy>
  </scstep>
  <structure>
   <crystal>
    <varray name="basis" >
     <v>       7.66857304       0.00000000       0.00000000 </v>
     <v>       0.00000000       7.66857304       0.00000000 </v>
     <v>       0.00000000       0.00000000      29.42250000 </v>
    </varray>
    <i name="volume">   1730.24932528 </i>
    <varray name="rec_basis" >
     <v>       0.13040236       0.00000000       0.00000000 </v>
     <v>       0.00000000       0.13040236       0.00000000 </v>
     <v>       0.00000000       0.00000000       0.03398759 </v>
    </varray>
   </crystal>
   <varray name="positions" >
    <v>       0.16666667       0.16666667       0.40785113 </v>
    <v>       0.50000000       0.16666667       0.40785113 </v>
    <v>       0.83333333       0.16666667       0.40785113 </v>
    <v>       0.16666667       0.50000000       0.40785113 </v>
    <v>       0.50000000       0.50000000       0.40785113 </v>
    <v>       0.83333333       0.50000000       0.40785113 </v>
    <v>       0.16666667       0.83333333       0.40785113 </v>
    <v>       0.50000000       0.83333333       0.40785113 </v>
    <v>       0.83333333       0.83333333       0.40785113 </v>
    <v>       0.00000000       0.00000000       0.46928371 </v>
    <v>       0.33333333       0.00000000       0.46928371 </v>
    <v>       0.66666667       0.00000000       0.46928371 </v>
    <v>       0.00000000       0.33333333       0.46928371 </v>
    <v>       0.33333333       0.33333333       0.46928371 </v>
    <v>       0.66666667       0.33333333       0.46928371 </v>
    <v>       0.00000000       0.66666667       0.46928371 </v>
    <v>       0.33333333       0.66666667       0.46928371 </v>
    <v>       0.66666667       0.66666667       0.46928371 </v>
    <v>       0.15658807       0.16581505       0.53456502 </v>
    <v>       0.48812629       0.16057808       0.53426371 </v>
    <v>       0.82798687       0.17346740       0.53458127 </v>
    <v>       0.17458705       0.49905859       0.53476628 </v>
    <v>       0.50494878       0.49473360       0.53428019 </v>
    <v>       0.84446323       0.50593587       0.53387474 </v>
    <v>       0.16610274       0.83342739       0.53046047 </v>
    <v>       0.49774495       0.82505224       0.53386070 </v>
    <v>       0.83451869       0.84257199       0.53383680 </v>
    <v>       0.96115112       0.02967409       0.60275874 </v>
    <v>       0.31684402       0.98430718       0.59671399 </v>
    <v>       0.64384276       0.99869501       0.59472789 </v>
    <v>       0.99195912       0.35708886       0.59870427 </v>
    <v>       0.33119293       0.31588157       0.59815976 </v>
    <v>       0.66290306       0.33344030       0.59603646 </v>
    <v>       0.01903909       0.68572571       0.59704904 </v>
    <v>       0.37553239       0.63562950       0.60352015 </v>
    <v>       0.69078347       0.66669727       0.59477149 </v>
    <v>       0.11851653       0.31871841       0.65643885 </v>
    <v>       0.10816685       0.89069744       0.64065742 </v>
    <v>       0.23087232       0.77468178       0.64116232 </v>
    <v>       0.08566626       0.42121500       0.69160224 </v>
    <v>       0.07576203       0.82347313       0.80676316 </v>
    <v>       0.18884513       0.83689650       0.83213837 </v>
    <v>       0.58070762       0.16377671       0.74354026 </v>
    <v>       0.55723901       0.16265701       0.78202596 </v>
   </varray>
  </structure>
  <varray name="forces" >
   <v>      -0.00091619       0.02531375      -0.03654256 </v>
   <v>      -0.01114948       0.02572741      -0.06262563 </v>
   <v>       0.00216507       0.01370140      -0.08562757 </v>
   <v>       0.01968160      -0.02347385      -0.05322050 </v>
   <v>       0.00122177      -0.00574983      -0.08374027 </v>
   <v>      -0.01548357      -0.00926089      -0.05874265 </v>
   <v>      -0.00109105       0.00443208      -0.05602802 </v>
   <v>       0.02195242      -0.02390148      -0.06453512 </v>
   <v>      -0.02532981      -0.00058411      -0.06433064 </v>
   <v>      -0.09844054       0.11202314       0.00088381 </v>
   <v>       0.00384774       0.03336497       0.02699993 </v>
   <v>      -0.05280068       0.03500041       0.10294078 </v>
   <v>       0.01771537       0.00902831       0.05993096 </v>
   <v>      -0.02669651      -0.01721516       0.06926867 </v>
   <v>      -0.00973657      -0.01674811       0.17356789 </v>
   <v>      -0.00399596      -0.01057465       0.03956386 </v>
   <v>       0.05484672      -0.12636997       0.05653861 </v>
   <v>       0.05881799      -0.00093305       0.06991134 </v>
   <v>      -0.00120537      -0.00158374       0.00109908 </v>
   <v>      -0.01700028       0.03623477      -0.03300413 </v>
   <v>      -0.01247010      -0.01115734      -0.03865522 </v>
   <v>       0.01645357       0.03555750       0.01189980 </v>
   <v>       0.00022818       0.00718201      -0.03438561 </v>
   <v>      -0.04767982       0.01773312      -0.04062660 </v>
   <v>       0.02758854      -0.00160387       0.00227220 </v>
   <v>       0.00272831      -0.01113239      -0.03328782 </v>
   <v>       0.00598349      -0.02954652      -0.01006886 </v>
   <v>       0.09731761      -0.06142859       0.08407893 </v>
   <v>      -0.03352390      -0.02663051       0.08783018 </v>
   <v>       0.02494102      -0.00334087       0.01825266 </v>
   <v>       0.01249605      -0.06074967      -0.02713978 </v>
   <v>      -0.06269662       0.02931618       0.07338879 </v>
   <v>      -0.07727275      -0.01122762       0.01090345 </v>
   <v>      -0.02996557       0.00625292       0.01112709 </v>
   <v>      -0.03152101       0.07306576      -0.00194747 </v>
   <v>       0.02806727       0.01385096      -0.01264264 </v>
   <v>      -0.00442270       0.05712468       0.14705308 </v>
   <v>      -0.01869069       0.05654030      -0.04486694 </v>
   <v>       0.01076199      -0.01304600       0.01922875 </v>
   <v>       0.16086224      -0.12743124      -0.21808658 </v>
   <v>       0.02478289       0.01111034       0.03386104 </v>
   <v>      -0.01881057      -0.00763986      -0.03472364 </v>
   <v>       0.01788579       0.00049022      -0.13250630 </v>
   <v>      -0.00944588      -0.00172087       0.12673363 </v>
  </varray>
  <varray name="stress" >
   <v>      -0.62736999       0.01478025       0.52182688 </v>
   <v>       0.01478016      -0.09347593      -0.21640978 </v>
   <v>       0.52182657      -0.21640997      -1.99244799 </v>
  </varray>
  <energy>
   <i name="e_fr_energy">   -161.54949119 </i>
   <i name="e_wo_entrp">   -161.48166883 </i>
   <i name="e_0_energy">   -161.51558001 </i>
  </energy>
  <time name="totalsc">   45.68   45.86</time>
 </calculation>
 <calculation>
  <scstep>
   <time name="dav">    2.82    2.83</time>
   <time name="total">    3.07    3.07</time>
   <energy>
    <i name="alphaZ">    647.15761179 </i>
    <i name="ewald"> 301777.26129217 </i>
    <i name="hartreedc">-350739.00619120 </i>
    <i name="XCdc">   1743.96505550 </i>
    <i name="pawpsdc">  49895.77054851 </i>
    <i name="pawaedc"> -53748.57118028 </i>
    <i name="eentropy">     -0.06390757 </i>
    <i name="bandstr">  -2093.85798349 </i>
    <i name="atom">  52355.81633338 </i>
    <i name="e_fr_energy">   -161.52842118 </i>
    <i name="e_wo_entrp">   -161.46451361 </i>
    <i name="e_0_energy">   -161.49646740 </i>
   </energy>
  </scstep>
  <scstep>
   <time name="dav">    4.29    4.30</time>
   <time name="total">    4.53    4.54</time>
   <energy>
    <i name="e_fr_energy">   -161.69440421 </i>
    <i name="e_wo_entrp">   -161.61120073 </i>
    <i name="e_0_energy">   -161.65280247 </i>
   </energy>
  </scstep>
  <scstep>
   <time name="dav">    4.06    4.07</time>
   <time name="total">    4.30    4.32</time>
   <energy>
    <i name="e_fr_energy">   -161.56693221 </i>
    <i name="e_wo_entrp">   -161.50834612 </i>
    <i name="e_0_energy">   -161.53763917 </i>
   </energy>
  </scstep>
  <scstep>
   <time name="dav">    3.70    3.71</time>
   <time name="total">    3.94    3.95</time>
   <energy>
    <i name="e_fr_energy">   -161.55485329 </i>
    <i name="e_wo_entrp">   -161.49088443 </i>
    <i name="e_0_energy">   -161.52286886 </i>
   </energy>
  </scstep>
  <scstep>
   <time name="dav">    3.36    3.36</time>
   <time name="total">    3.60    3.61</time>
   <energy>
    <i name="e_fr_energy">   -161.55666031 </i>
    <i name="e_wo_entrp">   -161.49220007 </i>
    <i name="e_0_energy">   -161.52443019 </i>
   </energy>
  </scstep>
  <scstep>
   <time name="dav">    3.45    3.46</time>
   <time name="total">    3.70    3.71</time>
   <energy>
    <i name="e_fr_energy">   -161.55487893 </i>
    <i name="e_wo_entrp">   -161.48818471 </i>
    <i name="e_0_energy">   -161.52153182 </i>
   </energy>
  </scstep>
  <scstep>
   <time name="dav">    3.83    3.84</time>
   <time name="total">    4.08    4.09</time>
   <energy>
    <i name="e_fr_energy">   -161.55562743 </i>
    <i name="e_wo_entrp">   -161.48817788 </i>
    <i name="e_0_energy">   -161.52190266 </i>
   </energy>
  </scstep>
  <scstep>
   <time name="dav">    3.58    3.59</time>
   <time name="total">    3.82    3.83</time>
   <energy>
    <i name="e_fr_energy">   -161.55553160 </i>
    <i name="e_wo_entrp">   -161.48788759 </i>
    <i name="e_0_energy">   -161.52170959 </i>
   </energy>
  </scstep>
  <scstep>
   <time name="dav">    3.73    3.73</time>
   <time name="total">    3.98    3.98</time>
   <energy>
    <i name="e_fr_energy">   -161.55553921 </i>
    <i name="e_wo_entrp">   -161.48790933 </i>
    <i name="e_0_energy">   -161.52172427 </i>
   </energy>
  </scstep>
  <scstep>
   <time name="dav">    3.24    3.25</time>
   <time name="total">    3.49    3.50</time>
   <energy>
    <i name="e_fr_energy">   -161.55553593 </i>
    <i name="e_wo_entrp">   -161.48794973 </i>
    <i name="e_0_energy">   -161.52174283 </i>
   </energy>
  </scstep>
  <scstep>
   <time name="dav">    3.38    3.39</time>
   <time name="total">    3.63    3.64</time>
   <energy>
    <i name="e_fr_energy">   -161.55552978 </i>
    <i name="e_wo_entrp">   -161.48805642 </i>
    <i name="e_0_energy">   -161.52179310 </i>
   </energy>
  </scstep>
  <scstep>
   <time name="dav">    3.53    3.54</time>
   <time name="total">    3.78    3.79</time>
   <energy>
    <i name="e_fr_energy">   -161.55553319 </i>
    <i name="e_wo_entrp">   -161.48812421 </i>
    <i name="e_0_energy">   -161.52182870 </i>
   </energy>
  </scstep>
  <scstep>
   <time name="dav">    2.68    2.69</time>
   <time name="total">    2.93    2.94</time>
   <energy>
    <i name="e_fr_energy">   -161.55553458 </i>
    <i name="e_wo_entrp">   -161.48814047 </i>
    <i name="e_0_energy">   -161.52183753 </i>
   </energy>
  </scstep>
  <scstep>
   <time name="dav">    2.04    2.04</time>
   <time name="total">    2.08    2.09</time>
   <energy>
    <i name="alphaZ">    647.15761179 </i>
    <i name="ewald"> 301777.26129217 </i>
    <i name="hartreedc">-350740.95832608 </i>
    <i name="XCdc">   1743.96250039 </i>
    <i name="pawpsdc">  49899.54805824 </i>
    <i name="pawaedc"> -53752.41867413 </i>
    <i name="eentropy">     -0.06737910 </i>
    <i name="bandstr">  -2091.85695167 </i>
    <i name="atom">  52355.81633338 </i>
    <i name="e_fr_energy">   -161.55553501 </i>
    <i name="e_wo_entrp">   -161.48815590 </i>
    <i name="e_0_energy">   -161.52184546 </i>
   </energy>
  </scstep>
  <structure>
   <crystal>
    <varray name="basis" >
     <v>       7.66857304       0.00000000       0.00000000 </v>
     <v>       0.00000000       7.66857304       0.00000000 </v>
     <v>       0.00000000       0.00000000      29.42250000 </v>
    </varray>
    <i name="volume">   1730.24932528 </i>
    <varray name="rec_basis" >
     <v>       0.13040236       0.00000000       0.00000000 </v>
     <v>       0.00000000       0.13040236       0.00000000 </v>
     <v>       0.00000000       0.00000000       0.03398759 </v>
    </varray>
   </crystal>
   <varray name="positions" >
    <v>       0.16666667       0.16666667       0.40785113 </v>
    <v>       0.50000000       0.16666667       0.40785113 </v>
    <v>       0.83333333       0.16666667       0.40785113 </v>
    <v>       0.16666667       0.50000000       0.40785113 </v>
    <v>       0.50000000       0.50000000       0.40785113 </v>
    <v>       0.83333333       0.50000000       0.40785113 </v>
    <v>       0.16666667       0.83333333       0.40785113 </v>
    <v>       0.50000000       0.83333333       0.40785113 </v>
    <v>       0.83333333       0.83333333       0.40785113 </v>
    <v>       0.00000000       0.00000000       0.46928371 </v>
    <v>       0.33333333       0.00000000       0.46928371 </v>
    <v>       0.66666667       0.00000000       0.46928371 </v>
    <v>       0.00000000       0.33333333       0.46928371 </v>
    <v>       0.33333333       0.33333333       0.46928371 </v>
    <v>       0.66666667       0.33333333       0.46928371 </v>
    <v>       0.00000000       0.66666667       0.46928371 </v>
    <v>       0.33333333       0.66666667       0.46928371 </v>
    <v>       0.66666667       0.66666667       0.46928371 </v>
    <v>       0.15631485       0.16600769       0.53461709 </v>
    <v>       0.48770855       0.16084671       0.53426299 </v>
    <v>       0.82776367       0.17339191       0.53452995 </v>
    <v>       0.17467082       0.49933713       0.53477125 </v>
    <v>       0.50450614       0.49476178       0.53418918 </v>
    <v>       0.84372448       0.50637890       0.53369722 </v>
    <v>       0.16631816       0.83368154       0.53042558 </v>
    <v>       0.49780601       0.82486122       0.53378719 </v>
    <v>       0.83458210       0.84265810       0.53380292 </v>
    <v>       0.96130940       0.02976284       0.60293905 </v>
    <v>       0.31654536       0.98421138       0.59684033 </v>
    <v>       0.64395609       0.99872519       0.59473926 </v>
    <v>       0.99042067       0.35689185       0.59850297 </v>
    <v>       0.33024522       0.31635577       0.59842465 </v>
    <v>       0.66173598       0.33352581       0.59602003 </v>
    <v>       0.01905137       0.68606351       0.59702016 </v>
    <v>       0.37627141       0.63614527       0.60348874 </v>
    <v>       0.69142522       0.66661995       0.59464795 </v>
    <v>       0.12000476       0.31755324       0.65564853 </v>
    <v>       0.10790424       0.89081404       0.64056442 </v>
    <v>       0.23132939       0.77458629       0.64103036 </v>
    <v>       0.08697196       0.42058635       0.69061357 </v>
    <v>       0.07553795       0.82364689       0.80679489 </v>
    <v>       0.18917645       0.83661140       0.83206282 </v>
    <v>       0.58045108       0.16387938       0.74356652 </v>
    <v>       0.55774688       0.16251507       0.78197717 </v>
   </varray>
  </structure>
  <varray name="forces" >
   <v>      -0.00104605       0.02525002      -0.03695004 </v>
   <v>      -0.01130372       0.02587275      -0.06247520 </v>
   <v>       0.00234499       0.01458990      -0.08607670 </v>
   <v>       0.01953157      -0.02314829      -0.05340307 </v>
   <v>       0.00101660      -0.00592831      -0.08355130 </v>
   <v>      -0.01498655      -0.01004302      -0.05933776 </v>
   <v>      -0.00014292       0.00468830      -0.05763088 </v>
   <v>       0.02073504      -0.02348329      -0.06461993 </v>
   <v>      -0.02492574      -0.00037157      -0.06415708 </v>
   <v>      -0.09776703       0.11541676      -0.00134941 </v>
   <v>       0.00482251       0.03706224       0.02488583 </v>
   <v>      -0.05565272       0.03705063       0.10217201 </v>
   <v>       0.01808179       0.00962132       0.06079471 </v>
   <v>      -0.03276958      -0.01767367       0.06547837 </v>
   <v>      -0.01343570      -0.01856505       0.16766006 </v>
   <v>       0.00005141      -0.00662069       0.03661022 </v>
   <v>       0.05111775      -0.12538328       0.04843381 </v>
   <v>       0.05709721       0.00236750       0.05829897 </v>
   <v>       0.00582049      -0.00502117      -0.00371466 </v>
   <v>      -0.02098582       0.02504792      -0.01200532 </v>
   <v>      -0.01802037      -0.00579347      -0.02054025 </v>
   <v>      -0.00556944       0.03033084       0.01452577 </v>
   <v>       0.00594374       0.00304821      -0.02233953 </v>
   <v>      -0.02022361      -0.00986951      -0.03068091 </v>
   <v>       0.02273462      -0.00400628       0.00776409 </v>
   <v>       0.00620345       0.01038111      -0.01718910 </v>
   <v>       0.01146387      -0.01886911      -0.00862738 </v>
   <v>       0.04753918      -0.03120570       0.03271717 </v>
   <v>      -0.00279102      -0.00691657       0.05642398 </v>
   <v>       0.01337456      -0.00593775       0.00566874 </v>
   <v>       0.00995336      -0.04247848      -0.06531735 </v>
   <v>      -0.06220993       0.02115636       0.06913230 </v>
   <v>      -0.07882831      -0.01242196       0.00347927 </v>
   <v>      -0.02295610      -0.00912803       0.00659569 </v>
   <v>      -0.01679781       0.05773182      -0.01794682 </v>
   <v>       0.01061532       0.01356980       0.00276404 </v>
   <v>       0.03539623      -0.02309748       0.05571334 </v>
   <v>       0.21662010      -0.16897475       0.00017338 </v>
   <v>      -0.21278622       0.18313126       0.04017715 </v>
   <v>       0.14230514      -0.04530728      -0.08345641 </v>
   <v>       0.09815165       0.01884711       0.09602630 </v>
   <v>      -0.09404300      -0.01573755      -0.09806395 </v>
   <v>       0.07181138       0.00419936      -0.47953168 </v>
   <v>      -0.06549034      -0.00338097       0.47346954 </v>
  </varray>
  <varray name="stress" >
   <v>      -0.76395269       0.12755851       0.45847888 </v>
   <v>       0.12755846      -0.13699661      -0.18629684 </v>
   <v>       0.45847890      -0.18629712      -1.42538333 </v>
  </varray>
  <energy>
   <i name="e_fr_energy">   -161.55553501 </i>
   <i name="e_wo_entrp">   -161.48815590 </i>
   <i name="e_0_energy">   -161.52184546 </i>
  </energy>
  <time name="totalsc">   55.00   55.15</time>
 </calculation>
