Cu(100) coverage-dependent binding (RPBE
            1
     7.668573    0.000000    0.000000
     0.000000    7.668573    0.000000
     0.000000    0.000000   29.422500
   Cu   O    C    O    C    O    C    O 
    36     1     2     1     1     1     1     1
Direct configuration=     1
   0.16666667  0.16666667  0.40785113
   0.50000000  0.16666667  0.40785113
   0.83333333  0.16666667  0.40785113
   0.16666667  0.50000000  0.40785113
   0.50000000  0.50000000  0.40785113
   0.83333333  0.50000000  0.40785113
   0.16666667  0.83333333  0.40785113
   0.50000000  0.83333333  0.40785113
   0.83333333  0.83333333  0.40785113
   0.00000000  0.00000000  0.46928371
   0.33333333  0.00000000  0.46928371
   0.66666667  0.00000000  0.46928371
   0.00000000  0.33333333  0.46928371
   0.33333333  0.33333333  0.46928371
   0.66666667  0.33333333  0.46928371
   0.00000000  0.66666667  0.46928371
   0.33333333  0.66666667  0.46928371
   0.66666667  0.66666667  0.46928371
   0.16666667  0.16666667  0.53071629
   0.50000000  0.16666667  0.53071629
   0.83333333  0.16666667  0.53071629
   0.16666667  0.50000000  0.53071629
   0.50000000  0.50000000  0.53071629
   0.83333333  0.50000000  0.53071629
   0.16666667  0.83333333  0.53071629
   0.50000000  0.83333333  0.53071629
   0.83333333  0.83333333  0.53071629
   0.00000000  0.00000000  0.59214887
   0.33333333  0.00000000  0.59214887
   0.66666667  0.00000000  0.59214887
   0.00000000  0.33333333  0.59214887
   0.33333333  0.33333333  0.59214887
   0.66666667  0.33333333  0.59214887
   0.00000000  0.66666667  0.59214887
   0.33333333  0.66666667  0.59214887
   0.66666667  0.66666667  0.59214887
   0.16666667  0.23553157  0.68731413
   0.16666667  0.28443245  0.64992778
   0.16666667  0.38223422  0.64992778
   0.16666667  0.43113510  0.68731413
   0.16666667  0.83333333  0.73829552
   0.16666667  0.83333333  0.77772113
   0.50000000  0.16666667  0.73829552
   0.50000000  0.16666667  0.77772113
Direct configuration=     2
   0.16666667  0.16666667  0.40785113
   0.50000000  0.16666667  0.40785113
   0.83333333  0.16666667  0.40785113
   0.16666667  0.50000000  0.40785113
   0.50000000  0.50000000  0.40785113
   0.83333333  0.50000000  0.40785113
   0.16666667  0.83333333  0.40785113
   0.50000000  0.83333333  0.40785113
   0.83333333  0.83333333  0.40785113
   0.00000000  0.00000000  0.46928371
   0.33333333  0.00000000  0.46928371
   0.66666667  0.00000000  0.46928371
   0.00000000  0.33333333  0.46928371
   0.33333333  0.33333333  0.46928371
   0.66666667  0.33333333  0.46928371
   0.00000000  0.66666667  0.46928371
   0.33333333  0.66666667  0.46928371
   0.66666667  0.66666667  0.46928371
   0.16670631  0.16644766  0.53066886
   0.49976059  0.16716179  0.53109651
   0.83353723  0.16715668  0.53109717
   0.16670137  0.50024983  0.53066778
   0.49975653  0.49952449  0.53110199
   0.83354656  0.49952757  0.53109527
   0.16669414  0.83330017  0.53102093
   0.49971383  0.83330950  0.53117551
   0.83359653  0.83330953  0.53117142
   0.00021522  0.99984653  0.59243724
   0.33304001  0.99983515  0.59243025
   0.66675010  0.99992030  0.59235411
   0.99689907  0.33327138  0.59198210
   0.33640764  0.33332328  0.59197514
   0.66671838  0.33331837  0.59218702
   0.00021319  0.66687425  0.59243903
   0.33308183  0.66684165  0.59243679
   0.66670975  0.66675747  0.59234485
   0.16566632  0.15043410  0.71649231
   0.16674628  0.91132666  0.62127243
   0.16671790  0.75519309  0.62125060
   0.16664026  0.51658224  0.71661635
   0.16645386  0.83314706  0.74034042
   0.16657109  0.83324796  0.77568536
   0.50140182  0.16665826  0.74039650
   0.49972567  0.16679282  0.77569899
Direct configuration=     3
   0.16666667  0.16666667  0.40785113
   0.50000000  0.16666667  0.40785113
   0.83333333  0.16666667  0.40785113
   0.16666667  0.50000000  0.40785113
   0.50000000  0.50000000  0.40785113
   0.83333333  0.50000000  0.40785113
   0.16666667  0.83333333  0.40785113
   0.50000000  0.83333333  0.40785113
   0.83333333  0.83333333  0.40785113
   0.00000000  0.00000000  0.46928371
   0.33333333  0.00000000  0.46928371
   0.66666667  0.00000000  0.46928371
   0.00000000  0.33333333  0.46928371
   0.33333333  0.33333333  0.46928371
   0.66666667  0.33333333  0.46928371
   0.00000000  0.66666667  0.46928371
   0.33333333  0.66666667  0.46928371
   0.66666667  0.66666667  0.46928371
   0.16670520  0.16645382  0.53067019
   0.49976733  0.16714786  0.53108582
   0.83353150  0.16714290  0.53108646
   0.16670040  0.50024281  0.53066914
   0.49976338  0.49953787  0.53109114
   0.83354056  0.49954086  0.53108461
   0.16669337  0.83330110  0.53101236
   0.49972188  0.83331017  0.53116259
   0.83358912  0.83331020  0.53115862
   0.00020917  0.99985084  0.59242913
   0.33304826  0.99983978  0.59242234
   0.66674776  0.99992254  0.59234834
   0.99698629  0.33327312  0.59198679
   0.33632117  0.33332357  0.59198002
   0.66671693  0.33331879  0.59218595
   0.00020719  0.66686841  0.59243087
   0.33308890  0.66683673  0.59242869
   0.66670854  0.66675492  0.59233933
   0.16569446  0.15282767  0.71567160
   0.16674404  0.94994855  0.62207843
   0.16671646  0.71657534  0.62205721
   0.16664101  0.51417883  0.71579215
   0.16645985  0.83315230  0.74028290
   0.16657377  0.83325036  0.77574262
   0.50136240  0.16665850  0.74033740
   0.49973338  0.16678927  0.77575587
Direct configuration=     4
   0.16666667  0.16666667  0.40785113
   0.50000000  0.16666667  0.40785113
   0.83333333  0.16666667  0.40785113
   0.16666667  0.50000000  0.40785113
   0.50000000  0.50000000  0.40785113
   0.83333333  0.50000000  0.40785113
   0.16666667  0.83333333  0.40785113
   0.50000000  0.83333333  0.40785113
   0.83333333  0.83333333  0.40785113
   0.00000000  0.00000000  0.46928371
   0.33333333  0.00000000  0.46928371
   0.66666667  0.00000000  0.46928371
   0.00000000  0.33333333  0.46928371
   0.33333333  0.33333333  0.46928371
   0.66666667  0.33333333  0.46928371
   0.00000000  0.66666667  0.46928371
   0.33333333  0.66666667  0.46928371
   0.66666667  0.66666667  0.46928371
   0.16670571  0.16645095  0.53066957
   0.49976419  0.16715434  0.53109079
   0.83353417  0.16714931  0.53109144
   0.16670085  0.50024608  0.53066851
   0.49976019  0.49953165  0.53109619
   0.83354335  0.49953468  0.53108957
   0.16669373  0.83330067  0.53101635
   0.49971814  0.83330986  0.53116860
   0.83359256  0.83330989  0.53116457
   0.00021199  0.99984884  0.59243290
   0.33304442  0.99983763  0.59242602
   0.66674885  0.99992149  0.59235103
   0.99694573  0.33327231  0.59198461
   0.33636138  0.33332343  0.59197775
   0.66671760  0.33331859  0.59218645
   0.00020998  0.66687113  0.59243466
   0.33308561  0.66683902  0.59243246
   0.66670911  0.66675610  0.59234190
   0.16568137  0.15171452  0.71605328
   0.16674508  0.93198717  0.62170359
   0.16671713  0.73453480  0.62168209
   0.16664066  0.51529655  0.71617545
   0.16645707  0.83314986  0.74030965
   0.16657252  0.83324924  0.77571599
   0.50138073  0.16665839  0.74036488
   0.49972979  0.16679092  0.77572942
Direct configuration=     5
   0.16666667  0.16666667  0.40785113
   0.50000000  0.16666667  0.40785113
   0.83333333  0.16666667  0.40785113
   0.16666667  0.50000000  0.40785113
   0.50000000  0.50000000  0.40785113
   0.83333333  0.50000000  0.40785113
   0.16666667  0.83333333  0.40785113
   0.50000000  0.83333333  0.40785113
   0.83333333  0.83333333  0.40785113
   0.00000000  0.00000000  0.46928371
   0.33333333  0.00000000  0.46928371
   0.66666667  0.00000000  0.46928371
   0.00000000  0.33333333  0.46928371
   0.33333333  0.33333333  0.46928371
   0.66666667  0.33333333  0.46928371
   0.00000000  0.66666667  0.46928371
   0.33333333  0.66666667  0.46928371
   0.66666667  0.66666667  0.46928371
   0.16670602  0.16644925  0.53066920
   0.49976234  0.16715818  0.53109374
   0.83353575  0.16715311  0.53109440
   0.16670112  0.50024802  0.53066813
   0.49975830  0.49952796  0.53109918
   0.83354500  0.49953101  0.53109251
   0.16669394  0.83330041  0.53101871
   0.49971592  0.83330967  0.53117216
   0.83359461  0.83330970  0.53116811
   0.00021366  0.99984765  0.59243514
   0.33304214  0.99983635  0.59242821
   0.66674950  0.99992088  0.59235262
   0.99692165  0.33327183  0.59198331
   0.33638525  0.33332336  0.59197640
   0.66671801  0.33331848  0.59218675
   0.00021163  0.66687274  0.59243692
   0.33308366  0.66684038  0.59243470
   0.66670944  0.66675681  0.59234342
   0.16567361  0.15105383  0.71627981
   0.16674570  0.92132654  0.62148112
   0.16671752  0.74519429  0.62145944
   0.16664046  0.51595996  0.71640295
   0.16645541  0.83314842  0.74032552
   0.16657178  0.83324858  0.77570018
   0.50139162  0.16665832  0.74038120
   0.49972766  0.16679190  0.77571372
Direct configuration=     6
   0.16666667  0.16666667  0.40785113
   0.50000000  0.16666667  0.40785113
   0.83333333  0.16666667  0.40785113
   0.16666667  0.50000000  0.40785113
   0.50000000  0.50000000  0.40785113
   0.83333333  0.50000000  0.40785113
   0.16666667  0.83333333  0.40785113
   0.50000000  0.83333333  0.40785113
   0.83333333  0.83333333  0.40785113
   0.00000000  0.00000000  0.46928371
   0.33333333  0.00000000  0.46928371
   0.66666667  0.00000000  0.46928371
   0.00000000  0.33333333  0.46928371
   0.33333333  0.33333333  0.46928371
   0.66666667  0.33333333  0.46928371
   0.00000000  0.66666667  0.46928371
   0.33333333  0.66666667  0.46928371
   0.66666667  0.66666667  0.46928371
   0.16670613  0.16644867  0.53066907
   0.49976170  0.16715950  0.53109476
   0.83353629  0.16715442  0.53109541
   0.16670121  0.50024868  0.53066800
   0.49975765  0.49952669  0.53110021
   0.83354557  0.49952975  0.53109352
   0.16669402  0.83330032  0.53101952
   0.49971515  0.83330961  0.53117339
   0.83359531  0.83330964  0.53116932
   0.00021423  0.99984724  0.59243591
   0.33304136  0.99983591  0.59242896
   0.66674972  0.99992066  0.59235317
   0.99691338  0.33327167  0.59198287
   0.33639345  0.33332333  0.59197594
   0.66671814  0.33331844  0.59218685
   0.00021220  0.66687329  0.59243769
   0.33308299  0.66684084  0.59243546
   0.66670956  0.66675705  0.59234394
   0.16567094  0.15082693  0.71635761
   0.16674591  0.91766537  0.62140471
   0.16671766  0.74885507  0.62138298
   0.16664039  0.51618779  0.71648108
   0.16645485  0.83314792  0.74033098
   0.16657153  0.83324835  0.77569476
   0.50139535  0.16665830  0.74038680
   0.49972693  0.16679223  0.77570833
Direct configuration=     7
   0.16666667  0.16666667  0.40785113
   0.50000000  0.16666667  0.40785113
   0.83333333  0.16666667  0.40785113
   0.16666667  0.50000000  0.40785113
   0.50000000  0.50000000  0.40785113
   0.83333333  0.50000000  0.40785113
   0.16666667  0.83333333  0.40785113
   0.50000000  0.83333333  0.40785113
   0.83333333  0.83333333  0.40785113
   0.00000000  0.00000000  0.46928371
   0.33333333  0.00000000  0.46928371
   0.66666667  0.00000000  0.46928371
   0.00000000  0.33333333  0.46928371
   0.33333333  0.33333333  0.46928371
   0.66666667  0.33333333  0.46928371
   0.00000000  0.66666667  0.46928371
   0.33333333  0.66666667  0.46928371
   0.66666667  0.66666667  0.46928371
   0.16670617  0.16644845  0.53066903
   0.49976146  0.16716000  0.53109514
   0.83353650  0.16715492  0.53109580
   0.16670125  0.50024893  0.53066795
   0.49975741  0.49952621  0.53110060
   0.83354579  0.49952928  0.53109391
   0.16669405  0.83330029  0.53101983
   0.49971486  0.83330958  0.53117385
   0.83359558  0.83330961  0.53116978
   0.00021445  0.99984708  0.59243620
   0.33304107  0.99983574  0.59242924
   0.66674980  0.99992058  0.59235337
   0.99691025  0.33327160  0.59198270
   0.33639656  0.33332332  0.59197576
   0.66671820  0.33331842  0.59218689
   0.00021242  0.66687350  0.59243798
   0.33308273  0.66684102  0.59243575
   0.66670960  0.66675714  0.59234414
   0.16566993  0.15074090  0.71638711
   0.16674599  0.91627708  0.62137574
   0.16671771  0.75024321  0.62135399
   0.16664036  0.51627418  0.71651071
   0.16645463  0.83314773  0.74033304
   0.16657143  0.83324827  0.77569270
   0.50139677  0.16665829  0.74038892
   0.49972665  0.16679236  0.77570628
Direct configuration=     8
   0.16666667  0.16666667  0.40785113
   0.50000000  0.16666667  0.40785113
   0.83333333  0.16666667  0.40785113
   0.16666667  0.50000000  0.40785113
   0.50000000  0.50000000  0.40785113
   0.83333333  0.50000000  0.40785113
   0.16666667  0.83333333  0.40785113
   0.50000000  0.83333333  0.40785113
   0.83333333  0.83333333  0.40785113
   0.00000000  0.00000000  0.46928371
   0.33333333  0.00000000  0.46928371
   0.66666667  0.00000000  0.46928371
   0.00000000  0.33333333  0.46928371
   0.33333333  0.33333333  0.46928371
   0.66666667  0.33333333  0.46928371
   0.00000000  0.66666667  0.46928371
   0.33333333  0.66666667  0.46928371
   0.66666667  0.66666667  0.46928371
   0.16672464  0.16794074  0.53065549
   0.49981632  0.16671537  0.53133679
   0.83348175  0.16671577  0.53133282
   0.16671518  0.49878132  0.53065549
   0.49980570  0.49995864  0.53134281
   0.83349484  0.49997488  0.53133468
   0.16670162  0.83328629  0.52991536
   0.50083948  0.83331659  0.53118310
   0.83247375  0.83330139  0.53117535
   0.97258003  0.01707262  0.58897032
   0.36081465  0.01714735  0.58891361
   0.66679204  0.00043110  0.59233545
   0.99698728  0.33325781  0.59219746
   0.33627041  0.33328429  0.59218953
   0.66674875  0.33329944  0.59247158
   0.97238135  0.64963050  0.58893806
   0.36101231  0.64951280  0.58891245
   0.66673124  0.66626702  0.59229729
   0.16502292  0.15471824  0.71642422
   0.16653033  0.89051524  0.63024781
   0.16664065  0.77603845  0.63029887
   0.16635769  0.51268885  0.71656897
   0.16608336  0.83252956  0.71125549
   0.16659346  0.83337607  0.80499911
   0.50411111  0.16645410  0.71063938
   0.49819063  0.16710619  0.80544069
Direct configuration=     9
   0.16666667  0.16666667  0.40785113
   0.50000000  0.16666667  0.40785113
   0.83333333  0.16666667  0.40785113
   0.16666667  0.50000000  0.40785113
   0.50000000  0.50000000  0.40785113
   0.83333333  0.50000000  0.40785113
   0.16666667  0.83333333  0.40785113
   0.50000000  0.83333333  0.40785113
   0.83333333  0.83333333  0.40785113
   0.00000000  0.00000000  0.46928371
   0.33333333  0.00000000  0.46928371
   0.66666667  0.00000000  0.46928371
   0.00000000  0.33333333  0.46928371
   0.33333333  0.33333333  0.46928371
   0.66666667  0.33333333  0.46928371
   0.00000000  0.66666667  0.46928371
   0.33333333  0.66666667  0.46928371
   0.66666667  0.66666667  0.46928371
   0.16671712  0.16733300  0.53066100
   0.49979398  0.16689645  0.53123837
   0.83350405  0.16689462  0.53123629
   0.16670951  0.49937902  0.53066057
   0.49978603  0.49978253  0.53124417
   0.83351559  0.49979341  0.53123662
   0.16669854  0.83329199  0.53036516
   0.50038147  0.83331374  0.53117933
   0.83293062  0.83330474  0.53117308
   0.98383433  0.01005740  0.59038183
   0.34950367  0.01009708  0.59034538
   0.66677484  0.00022319  0.59234275
   0.99695591  0.33326343  0.59211000
   0.33632179  0.33330019  0.59210247
   0.66673630  0.33330717  0.59235563
   0.98371575  0.65665283  0.59036343
   0.34963780  0.65656984  0.59034734
   0.66672242  0.66646663  0.59231637
   0.16528642  0.15309844  0.71640911
   0.16661816  0.90100693  0.62663460
   0.16667203  0.76553316  0.62665600
   0.16647281  0.51414900  0.71654524
   0.16623456  0.83278131  0.72309753
   0.16658449  0.83332402  0.79306387
   0.50300567  0.16653726  0.72275509
   0.49881619  0.16697838  0.79333115
Direct configuration=    10
   0.16666667  0.16666667  0.40785113
   0.50000000  0.16666667  0.40785113
   0.83333333  0.16666667  0.40785113
   0.16666667  0.50000000  0.40785113
   0.50000000  0.50000000  0.40785113
   0.83333333  0.50000000  0.40785113
   0.16666667  0.83333333  0.40785113
   0.50000000  0.83333333  0.40785113
   0.83333333  0.83333333  0.40785113
   0.00000000  0.00000000  0.46928371
   0.33333333  0.00000000  0.46928371
   0.66666667  0.00000000  0.46928371
   0.00000000  0.33333333  0.46928371
   0.33333333  0.33333333  0.46928371
   0.66666667  0.33333333  0.46928371
   0.00000000  0.66666667  0.46928371
   0.33333333  0.66666667  0.46928371
   0.66666667  0.66666667  0.46928371
   0.16671357  0.16704621  0.53066361
   0.49978343  0.16698190  0.53119194
   0.83351457  0.16697901  0.53119074
   0.16670683  0.49966106  0.53066296
   0.49977675  0.49969943  0.53119762
   0.83352538  0.49970777  0.53119035
   0.16669708  0.83329468  0.53057742
   0.50016534  0.83331239  0.53117756
   0.83314622  0.83330632  0.53117201
   0.98914513  0.00674699  0.59104790
   0.34416613  0.00677013  0.59102101
   0.66676672  0.00012508  0.59234619
   0.99694110  0.33326608  0.59206872
   0.33634603  0.33330769  0.59206139
   0.66673043  0.33331082  0.59230092
   0.98906433  0.65996659  0.59103605
   0.34427028  0.65989998  0.59102445
   0.66671827  0.66656082  0.59232537
   0.16541076  0.15233407  0.71640198
   0.16665961  0.90595784  0.62492956
   0.16668684  0.76057582  0.62493697
   0.16652713  0.51483803  0.71653405
   0.16630591  0.83290011  0.72868566
   0.16658026  0.83329946  0.78743176
   0.50248403  0.16657650  0.72847236
   0.49911138  0.16691807  0.78761678
Direct configuration=    11
   0.16666667  0.16666667  0.40785113
   0.50000000  0.16666667  0.40785113
   0.83333333  0.16666667  0.40785113
   0.16666667  0.50000000  0.40785113
   0.50000000  0.50000000  0.40785113
   0.83333333  0.50000000  0.40785113
   0.16666667  0.83333333  0.40785113
   0.50000000  0.83333333  0.40785113
   0.83333333  0.83333333  0.40785113
   0.00000000  0.00000000  0.46928371
   0.33333333  0.00000000  0.46928371
   0.66666667  0.00000000  0.46928371
   0.00000000  0.33333333  0.46928371
   0.33333333  0.33333333  0.46928371
   0.66666667  0.33333333  0.46928371
   0.00000000  0.66666667  0.46928371
   0.33333333  0.66666667  0.46928371
   0.66666667  0.66666667  0.46928371
   0.16670987  0.16674733  0.53066632
   0.49977244  0.16707095  0.53114354
   0.83352553  0.16706696  0.53114327
   0.16670404  0.49995500  0.53066546
   0.49976708  0.49961282  0.53114911
   0.83353558  0.49961852  0.53114213
   0.16669556  0.83329748  0.53079863
   0.49994010  0.83331099  0.53117570
   0.83337090  0.83330797  0.53117090
   0.99467979  0.00329704  0.59174205
   0.33860360  0.00330294  0.59172513
   0.66675826  0.00002283  0.59234978
   0.99692567  0.33326884  0.59202571
   0.33637129  0.33331550  0.59201858
   0.66672431  0.33331462  0.59224390
   0.99463837  0.66342005  0.59173701
   0.33867651  0.66337050  0.59173010
   0.66671393  0.66665898  0.59233476
   0.16554034  0.15153748  0.71639455
   0.16670280  0.91111746  0.62315265
   0.16670228  0.75540951  0.62314548
   0.16658375  0.51555610  0.71652238
   0.16638027  0.83302392  0.73450935
   0.16657584  0.83327386  0.78156223
   0.50194040  0.16661739  0.73443064
   0.49941902  0.16685521  0.78166153
Direct configuration=    12
   0.16666667  0.16666667  0.40785113
   0.50000000  0.16666667  0.40785113
   0.83333333  0.16666667  0.40785113
   0.16666667  0.50000000  0.40785113
   0.50000000  0.50000000  0.40785113
   0.83333333  0.50000000  0.40785113
   0.16666667  0.83333333  0.40785113
   0.50000000  0.83333333  0.40785113
   0.83333333  0.83333333  0.40785113
   0.00000000  0.00000000  0.46928371
   0.33333333  0.00000000  0.46928371
   0.66666667  0.00000000  0.46928371
   0.00000000  0.33333333  0.46928371
   0.33333333  0.33333333  0.46928371
   0.66666667  0.33333333  0.46928371
   0.00000000  0.66666667  0.46928371
   0.33333333  0.66666667  0.46928371
   0.66666667  0.66666667  0.46928371
   0.16670802  0.16659789  0.53066767
   0.49976695  0.16711548  0.53111934
   0.83353102  0.16711094  0.53111953
   0.16670264  0.50010197  0.53066670
   0.49976224  0.49956951  0.53112486
   0.83354068  0.49957390  0.53111802
   0.16669480  0.83329889  0.53090923
   0.49982748  0.83331029  0.53117478
   0.83348324  0.83330879  0.53117034
   0.99744712  0.00157206  0.59208913
   0.33582233  0.00156934  0.59207718
   0.66675403  0.99997171  0.59235158
   0.99691796  0.33327022  0.59200421
   0.33638393  0.33331941  0.59199717
   0.66672125  0.33331652  0.59221540
   0.99742540  0.66514677  0.59208750
   0.33587962  0.66510576  0.59208293
   0.66671177  0.66670806  0.59233945
   0.16560513  0.15113919  0.71639083
   0.16672440  0.91369727  0.62226419
   0.16671000  0.75282636  0.62224973
   0.16661205  0.51591514  0.71651654
   0.16641745  0.83308583  0.73742120
   0.16657364  0.83326106  0.77862746
   0.50166859  0.16663784  0.73740978
   0.49957284  0.16682379  0.77868391
Direct configuration=    13
   0.16666667  0.16666667  0.40785113
   0.50000000  0.16666667  0.40785113
   0.83333333  0.16666667  0.40785113
   0.16666667  0.50000000  0.40785113
   0.50000000  0.50000000  0.40785113
   0.83333333  0.50000000  0.40785113
   0.16666667  0.83333333  0.40785113
   0.50000000  0.83333333  0.40785113
   0.83333333  0.83333333  0.40785113
   0.00000000  0.00000000  0.46928371
   0.33333333  0.00000000  0.46928371
   0.66666667  0.00000000  0.46928371
   0.00000000  0.33333333  0.46928371
   0.33333333  0.33333333  0.46928371
   0.66666667  0.33333333  0.46928371
   0.00000000  0.66666667  0.46928371
   0.33333333  0.66666667  0.46928371
   0.66666667  0.66666667  0.46928371
   0.16670721  0.16653276  0.53066826
   0.49976456  0.16713488  0.53110879
   0.83353341  0.16713011  0.53110919
   0.16670203  0.50016601  0.53066725
   0.49976014  0.49955064  0.53111429
   0.83354291  0.49955445  0.53110751
   0.16669447  0.83329950  0.53095743
   0.49977840  0.83330998  0.53117438
   0.83353219  0.83330915  0.53117010
   0.99865310  0.00082033  0.59224038
   0.33461028  0.00081385  0.59223061
   0.66675219  0.99994943  0.59235236
   0.99691460  0.33327082  0.59199483
   0.33638943  0.33332111  0.59198784
   0.66671992  0.33331735  0.59220297
   0.99863996  0.66589927  0.59224024
   0.33466076  0.66586197  0.59223669
   0.66671082  0.66672945  0.59234149
   0.16563337  0.15096562  0.71638921
   0.16673381  0.91482153  0.62187701
   0.16671336  0.75170064  0.62185937
   0.16662439  0.51607161  0.71651400
   0.16643365  0.83311280  0.73869016
   0.16657268  0.83325549  0.77734851
   0.50155013  0.16664675  0.73870807
   0.49963987  0.16681009  0.77738628
Direct configuration=    14
   0.16666667  0.16666667  0.40785113
   0.50000000  0.16666667  0.40785113
   0.83333333  0.16666667  0.40785113
   0.16666667  0.50000000  0.40785113
   0.50000000  0.50000000  0.40785113
   0.83333333  0.50000000  0.40785113
   0.16666667  0.83333333  0.40785113
   0.50000000  0.83333333  0.40785113
   0.83333333  0.83333333  0.40785113
   0.00000000  0.00000000  0.46928371
   0.33333333  0.00000000  0.46928371
   0.66666667  0.00000000  0.46928371
   0.00000000  0.33333333  0.46928371
   0.33333333  0.33333333  0.46928371
   0.66666667  0.33333333  0.46928371
   0.00000000  0.66666667  0.46928371
   0.33333333  0.66666667  0.46928371
   0.66666667  0.66666667  0.46928371
   0.16670758  0.16656285  0.53066799
   0.49976566  0.16712592  0.53111367
   0.83353230  0.16712125  0.53111397
   0.16670232  0.50013642  0.53066700
   0.49976111  0.49955936  0.53111917
   0.83354188  0.49956344  0.53111237
   0.16669463  0.83329922  0.53093516
   0.49980108  0.83331012  0.53117456
   0.83350957  0.83330898  0.53117021
   0.99809593  0.00116763  0.59217050
   0.33517025  0.00116289  0.59215972
   0.66675304  0.99995972  0.59235200
   0.99691615  0.33327055  0.59199916
   0.33638689  0.33332033  0.59199215
   0.66672054  0.33331697  0.59220871
   0.99807882  0.66555161  0.59216967
   0.33522388  0.66551260  0.59216565
   0.66671126  0.66671957  0.59234055
   0.16562033  0.15104581  0.71638996
   0.16672946  0.91430212  0.62205589
   0.16671181  0.75222073  0.62203972
   0.16661869  0.51599932  0.71651517
   0.16642617  0.83310034  0.73810389
   0.16657312  0.83325806  0.77793940
   0.50160486  0.16664264  0.73810825
   0.49960890  0.16681642  0.77798579
Direct configuration=    15
   0.16666667  0.16666667  0.40785113
   0.50000000  0.16666667  0.40785113
   0.83333333  0.16666667  0.40785113
   0.16666667  0.50000000  0.40785113
   0.50000000  0.50000000  0.40785113
   0.83333333  0.50000000  0.40785113
   0.16666667  0.83333333  0.40785113
   0.50000000  0.83333333  0.40785113
   0.83333333  0.83333333  0.40785113
   0.00000000  0.00000000  0.46928371
   0.33333333  0.00000000  0.46928371
   0.66666667  0.00000000  0.46928371
   0.00000000  0.33333333  0.46928371
   0.33333333  0.33333333  0.46928371
   0.66666667  0.33333333  0.46928371
   0.00000000  0.66666667  0.46928371
   0.33333333  0.66666667  0.46928371
   0.66666667  0.66666667  0.46928371
   0.16670754  0.16655906  0.53066802
   0.49976552  0.16712705  0.53111305
   0.83353244  0.16712237  0.53111337
   0.16670228  0.50014015  0.53066703
   0.49976099  0.49955826  0.53111855
   0.83354201  0.49956231  0.53111175
   0.16669461  0.83329925  0.53093797
   0.49979822  0.83331010  0.53117454
   0.83351242  0.83330900  0.53117019
   0.99816614  0.00112387  0.59217931
   0.33509969  0.00111891  0.59216866
   0.66675293  0.99995842  0.59235204
   0.99691596  0.33327058  0.59199862
   0.33638721  0.33332043  0.59199161
   0.66672046  0.33331701  0.59220799
   0.99814953  0.66559542  0.59217856
   0.33515292  0.66555662  0.59217460
   0.66671120  0.66672081  0.59234067
   0.16562197  0.15103570  0.71638986
   0.16673001  0.91436757  0.62203335
   0.16671200  0.75215519  0.62201700
   0.16661941  0.51600843  0.71651502
   0.16642711  0.83310191  0.73817777
   0.16657306  0.83325774  0.77786494
   0.50159796  0.16664315  0.73818384
   0.49961280  0.16681562  0.77791025
Direct configuration=    16
   0.16666667  0.16666667  0.40785113
   0.50000000  0.16666667  0.40785113
   0.83333333  0.16666667  0.40785113
   0.16666667  0.50000000  0.40785113
   0.50000000  0.50000000  0.40785113
   0.83333333  0.50000000  0.40785113
   0.16666667  0.83333333  0.40785113
   0.50000000  0.83333333  0.40785113
   0.83333333  0.83333333  0.40785113
   0.00000000  0.00000000  0.46928371
   0.33333333  0.00000000  0.46928371
   0.66666667  0.00000000  0.46928371
   0.00000000  0.33333333  0.46928371
   0.33333333  0.33333333  0.46928371
   0.66666667  0.33333333  0.46928371
   0.00000000  0.66666667  0.46928371
   0.33333333  0.66666667  0.46928371
   0.66666667  0.66666667  0.46928371
   0.16672488  0.16780943  0.53067038
   0.49988056  0.16680188  0.53129419
   0.83342298  0.16680024  0.53129127
   0.16671643  0.49890473  0.53067076
   0.49987118  0.49986978  0.53130001
   0.83343639  0.49988498  0.53129244
   0.16670519  0.83328450  0.53007077
   0.50079841  0.83331484  0.53115590
   0.83252027  0.83330076  0.53114848
   0.97822874  0.01420780  0.58973977
   0.35502904  0.01424285  0.58969805
   0.66679308  0.00037710  0.59233793
   0.99708651  0.33325559  0.59219672
   0.33617841  0.33328352  0.59218675
   0.66674910  0.33329792  0.59246318
   0.97812373  0.65256932  0.58972355
   0.35516227  0.65250661  0.58970737
   0.66673481  0.66631886  0.59230299
   0.16538828  0.15526110  0.71605104
   0.16657932  0.92232248  0.62895716
   0.16667699  0.74416267  0.62898422
   0.16639579  0.51207619  0.71618560
   0.16618507  0.83268122  0.73860409
   0.16652588  0.83325047  0.77767506
   0.50214733  0.16661985  0.73870957
   0.49979551  0.16694846  0.77736623
Direct configuration=    17
   0.16666667  0.16666667  0.40785113
   0.50000000  0.16666667  0.40785113
   0.83333333  0.16666667  0.40785113
   0.16666667  0.50000000  0.40785113
   0.50000000  0.50000000  0.40785113
   0.83333333  0.50000000  0.40785113
   0.16666667  0.83333333  0.40785113
   0.50000000  0.83333333  0.40785113
   0.83333333  0.83333333  0.40785113
   0.00000000  0.00000000  0.46928371
   0.33333333  0.00000000  0.46928371
   0.66666667  0.00000000  0.46928371
   0.00000000  0.33333333  0.46928371
   0.33333333  0.33333333  0.46928371
   0.66666667  0.33333333  0.46928371
   0.00000000  0.66666667  0.46928371
   0.33333333  0.66666667  0.46928371
   0.66666667  0.66666667  0.46928371
   0.16671989  0.16744958  0.53066970
   0.49984745  0.16689546  0.53124206
   0.83345449  0.16689295  0.53124007
   0.16671236  0.49926027  0.53066969
   0.49983946  0.49978013  0.53124779
   0.83346679  0.49979211  0.53124044
   0.16670215  0.83328874  0.53032034
   0.50051057  0.83331348  0.53116126
   0.83280581  0.83330313  0.53115473
   0.98396658  0.01044234  0.59044185
   0.34929352  0.01046588  0.59040907
   0.66678153  0.00025661  0.59234199
   0.99703743  0.33325990  0.59213971
   0.33623850  0.33329414  0.59213059
   0.66674086  0.33330342  0.59238974
   0.98388700  0.65631814  0.59043008
   0.34940373  0.65626231  0.59041742
   0.66672802  0.66643454  0.59231384
   0.16545554  0.15404507  0.71614855
   0.16662269  0.92003312  0.62696454
   0.16668706  0.74646286  0.62697911
   0.16646014  0.51320786  0.71628041
   0.16625473  0.83280229  0.73848140
   0.16653946  0.83325256  0.77772971
   0.50198923  0.16662656  0.73855827
   0.49974293  0.16691023  0.77752280
Direct configuration=    18
   0.16666667  0.16666667  0.40785113
   0.50000000  0.16666667  0.40785113
   0.83333333  0.16666667  0.40785113
   0.16666667  0.50000000  0.40785113
   0.50000000  0.50000000  0.40785113
   0.83333333  0.50000000  0.40785113
   0.16666667  0.83333333  0.40785113
   0.50000000  0.83333333  0.40785113
   0.83333333  0.83333333  0.40785113
   0.00000000  0.00000000  0.46928371
   0.33333333  0.00000000  0.46928371
   0.66666667  0.00000000  0.46928371
   0.00000000  0.33333333  0.46928371
   0.33333333  0.33333333  0.46928371
   0.66666667  0.33333333  0.46928371
   0.00000000  0.66666667  0.46928371
   0.33333333  0.66666667  0.46928371
   0.66666667  0.66666667  0.46928371
   0.16672200  0.16821381  0.53069460
   0.50064122  0.16751225  0.53105161
   0.83267026  0.16750685  0.53104968