       N       E                     dE             d eps       ncg     rms          rms(c)
DAV:   1     0.420235844912E+04    0.42024E+04   -0.16543E+05  2610   0.165E+03
DAV:   2     0.563949852208E+03   -0.36384E+04   -0.34986E+04  2610   0.415E+02
DAV:   3    -0.636530777400E+02   -0.62760E+03   -0.57390E+03  3502   0.211E+02
DAV:   4    -0.189862854678E+03   -0.12621E+03   -0.11857E+03  4196   0.913E+01
DAV:   5    -0.199027347522E+03   -0.91645E+01   -0.87271E+01  4116   0.276E+01    0.492E+01
DAV:   6    -0.195497574205E+03    0.35298E+01   -0.41619E+02  3196   0.147E+02    0.338E+01
DAV:   7    -0.163765477770E+03    0.31732E+02   -0.12017E+02  3260   0.125E+02    0.132E+01
DAV:   8    -0.164559190189E+03   -0.79371E+00   -0.49421E+01  3660   0.815E+01    0.737E+00
DAV:   9    -0.164532804273E+03    0.26386E-01   -0.15683E+01  3956   0.435E+01    0.504E+00
DAV:  10    -0.164718449922E+03   -0.18565E+00   -0.55271E+00  3140   0.312E+01    0.508E+00
DAV:  11    -0.164590900894E+03    0.12755E+00   -0.22516E+00  3052   0.168E+01    0.279E+00
DAV:  12    -0.164506258161E+03    0.84643E-01   -0.67839E-01  3676   0.944E+00    0.121E+00
DAV:  13    -0.164499582746E+03    0.66754E-02   -0.27918E-01  3252   0.647E+00    0.614E-01
DAV:  14    -0.164502473956E+03   -0.28912E-02   -0.11478E-01  3143   0.295E+00    0.492E-01
DAV:  15    -0.164497726165E+03    0.47478E-02   -0.25288E-02  3130   0.185E+00    0.354E-01
DAV:  16    -0.164494432285E+03    0.32939E-02   -0.11464E-02  3396   0.133E+00    0.990E-02
DAV:  17    -0.164493982581E+03    0.44970E-03   -0.43246E-03  3442   0.468E-01    0.106E-01
DAV:  18    -0.164493848895E+03    0.13369E-03   -0.13514E-03  3052   0.512E-01    0.768E-02
DAV:  19    -0.164494025513E+03   -0.17662E-03   -0.71021E-04  3298   0.221E-01    0.414E-02
DAV:  20    -0.164494493369E+03   -0.46786E-03   -0.33559E-04  3119   0.166E-01    0.391E-02
DAV:  21    -0.164495002782E+03   -0.50941E-03   -0.14413E-04  4058   0.155E-01    0.213E-02
DAV:  22    -0.164495450806E+03   -0.44802E-03   -0.11127E-04  3450   0.963E-02    0.130E-02
DAV:  23    -0.164495903150E+03   -0.45234E-03   -0.61880E-05  3344   0.593E-02    0.982E-03
DAV:  24    -0.164496136302E+03   -0.23315E-03   -0.20838E-05  3568   0.374E-02    0.759E-03
DAV:  25    -0.164496234004E+03   -0.97702E-04   -0.62943E-06  2647   0.315E-02    0.424E-03
DAV:  26    -0.164496350700E+03   -0.11670E-03   -0.11781E-05  3066   0.207E-02    0.340E-03
DAV:  27    -0.164496391987E+03   -0.41287E-04   -0.22517E-06  1876   0.153E-02    0.306E-03
DAV:  28    -0.164496418161E+03   -0.26174E-04   -0.11087E-06  1735   0.111E-02    0.171E-03
DAV:  29    -0.164496455116E+03   -0.36955E-04   -0.19814E-06  1935   0.630E-03    0.124E-03
DAV:  30    -0.164496472435E+03   -0.17319E-04   -0.72086E-07  1724   0.634E-03    0.100E-03
DAV:  31    -0.164496479551E+03   -0.71152E-05   -0.37878E-07  1666   0.478E-03    0.690E-04
DAV:  32    -0.164496484172E+03   -0.46215E-05   -0.26378E-07  1655   0.327E-03    0.401E-04
DAV:  33    -0.164496488492E+03   -0.43202E-05   -0.15476E-07  1586   0.231E-03    0.399E-04
DAV:  34    -0.164496490752E+03   -0.22592E-05   -0.85866E-08  1663   0.195E-03    0.230E-04
DAV:  35    -0.164496492032E+03   -0.12802E-05   -0.47655E-08  1581   0.123E-03    0.170E-04
DAV:  36    -0.164496492558E+03   -0.52573E-06   -0.22591E-08  1562   0.949E-04
   1 F= -.16449649E+03 E0= -.16445664E+03  d E =-.164496E+03
       N       E                     dE             d eps       ncg     rms          rms(c)
DAV:   1    -0.159810700678E+03    0.46858E+01   -0.41706E+02  2618   0.359E+01    0.624E+00
DAV:   2    -0.161790681718E+03   -0.19800E+01   -0.25129E+01  4000   0.196E+01    0.675E+00
DAV:   3    -0.161458471167E+03    0.33221E+00   -0.40229E+00  3904   0.254E+01    0.465E+00
DAV:   4    -0.161361899074E+03    0.96572E-01   -0.77821E-01  3332   0.189E+01    0.377E+00
DAV:   5    -0.161302833993E+03    0.59065E-01   -0.30104E-01  3876   0.139E+01    0.308E+00
DAV:   6    -0.161236055976E+03    0.66778E-01   -0.55289E-01  4090   0.106E+01    0.759E-01
DAV:   7    -0.161240512136E+03   -0.44562E-02   -0.16697E-01  3727   0.412E+00    0.450E-01
DAV:   8    -0.161241911923E+03   -0.13998E-02   -0.27250E-02  3100   0.163E+00    0.347E-01
DAV:   9    -0.161244016869E+03   -0.21049E-02   -0.10973E-02  3101   0.101E+00    0.257E-01
DAV:  10    -0.161247497887E+03   -0.34810E-02   -0.61140E-03  3351   0.728E-01    0.115E-01
DAV:  11    -0.161247716047E+03   -0.21816E-03   -0.17820E-03  3023   0.600E-01    0.635E-02
DAV:  12    -0.161248149356E+03   -0.43331E-03   -0.65571E-04  3072   0.358E-01    0.352E-02
DAV:  13    -0.161248722522E+03   -0.57317E-03   -0.28004E-04  3816   0.130E-01    0.230E-02
DAV:  14    -0.161249151206E+03   -0.42868E-03   -0.10287E-04  3431   0.121E-01    0.178E-02
DAV:  15    -0.161249478158E+03   -0.32695E-03   -0.65973E-05  3656   0.948E-02    0.123E-02
DAV:  16    -0.161249834018E+03   -0.35586E-03   -0.64192E-05  3584   0.434E-02    0.114E-02
DAV:  17    -0.161249954490E+03   -0.12047E-03   -0.18419E-05  3719   0.397E-02    0.718E-03
DAV:  18    -0.161250124167E+03   -0.16968E-03   -0.31876E-05  3653   0.386E-02    0.692E-03
DAV:  19    -0.161250208476E+03   -0.84309E-04   -0.13926E-05  3394   0.238E-02    0.520E-03
DAV:  20    -0.161250226855E+03   -0.18379E-04   -0.18664E-06  1956   0.120E-02    0.248E-03
DAV:  21    -0.161250242222E+03   -0.15366E-04   -0.12841E-06  1618   0.119E-02    0.178E-03
DAV:  22    -0.161250260104E+03   -0.17882E-04   -0.87880E-07  1674   0.738E-03    0.920E-04
DAV:  23    -0.161250272230E+03   -0.12125E-04   -0.72429E-07  1621   0.609E-03    0.111E-03
DAV:  24    -0.161250275677E+03   -0.34472E-05   -0.37771E-07  1628   0.536E-03    0.683E-04
DAV:  25    -0.161250280833E+03   -0.51563E-05   -0.27194E-07  1541   0.344E-03    0.815E-04
DAV:  26    -0.161250284562E+03   -0.37294E-05   -0.22435E-07  1570   0.340E-03    0.518E-04
DAV:  27    -0.161250285702E+03   -0.11397E-05   -0.11526E-07  1567   0.272E-03    0.309E-04
DAV:  28    -0.161250286847E+03   -0.11445E-05   -0.76063E-08  1501   0.159E-03    0.250E-04
DAV:  29    -0.161250287987E+03   -0.11405E-05   -0.35353E-08  1511   0.122E-03    0.175E-04
DAV:  30    -0.161250288433E+03   -0.44610E-06   -0.16205E-08  1477   0.981E-04
   2 F= -.16125029E+03 E0= -.16121281E+03  d E =0.324620E+01
       N       E                     dE             d eps       ncg     rms          rms(c)
DAV:   1    -0.162748490864E+03   -0.14982E+01   -0.29002E+02  2610   0.347E+01    0.620E+00
DAV:   2    -0.165544927911E+03   -0.27964E+01   -0.30570E+01  4540   0.219E+01    0.586E+00
DAV:   3    -0.165030202279E+03    0.51473E+00   -0.40396E+00  4658   0.332E+01    0.367E+00
DAV:   4    -0.164784207078E+03    0.24600E+00   -0.14666E+00  3332   0.268E+01    0.271E+00
DAV:   5    -0.164648406468E+03    0.13580E+00   -0.40820E-01  3383   0.981E+00    0.136E+00
DAV:   6    -0.164623028354E+03    0.25378E-01   -0.28327E-01  3820   0.495E+00    0.663E-01
DAV:   7    -0.164626084339E+03   -0.30560E-02   -0.11362E-01  3092   0.420E+00    0.415E-01
DAV:   8    -0.164626094862E+03   -0.10523E-04   -0.34564E-02  3140   0.221E+00    0.186E-01
DAV:   9    -0.164626304518E+03   -0.20966E-03   -0.63228E-03  3202   0.932E-01    0.119E-01
DAV:  10    -0.164626577267E+03   -0.27275E-03   -0.26278E-03  3069   0.800E-01    0.816E-02
DAV:  11    -0.164626902264E+03   -0.32500E-03   -0.10777E-03  3183   0.395E-01    0.340E-02
DAV:  12    -0.164627332309E+03   -0.43005E-03   -0.46301E-04  3082   0.177E-01    0.321E-02
DAV:  13    -0.164627579408E+03   -0.24710E-03   -0.14405E-04  3050   0.156E-01    0.198E-02
DAV:  14    -0.164628132714E+03   -0.55331E-03   -0.10372E-04  3842   0.784E-02    0.112E-02
DAV:  15    -0.164628385444E+03   -0.25273E-03   -0.18660E-05  3674   0.360E-02    0.767E-03
DAV:  16    -0.164628644496E+03   -0.25905E-03   -0.19492E-05  2994   0.584E-02    0.796E-03
DAV:  17    -0.164628917623E+03   -0.27313E-03   -0.21608E-05  3450   0.417E-02    0.464E-03
DAV:  18    -0.164629059878E+03   -0.14226E-03   -0.93381E-06  2658   0.211E-02    0.318E-03
DAV:  19    -0.164629127757E+03   -0.67880E-04   -0.31604E-06  2124   0.193E-02    0.276E-03
DAV:  20    -0.164629170754E+03   -0.42997E-04   -0.15687E-06  1770   0.114E-02    0.175E-03
DAV:  21    -0.164629205638E+03   -0.34883E-04   -0.12940E-06  1691   0.738E-03    0.136E-03
DAV:  22    -0.164629222886E+03   -0.17248E-04   -0.58341E-07  1690   0.699E-03    0.112E-03
DAV:  23    -0.164629232679E+03   -0.97934E-05   -0.34938E-07  1566   0.471E-03    0.854E-04
DAV:  24    -0.164629243785E+03   -0.11106E-04   -0.38709E-07  1611   0.423E-03    0.728E-04
DAV:  25    -0.164629246393E+03   -0.26078E-05   -0.17732E-07  1637   0.303E-03    0.383E-04
DAV:  26    -0.164629249644E+03   -0.32513E-05   -0.11721E-07  1539   0.226E-03    0.374E-04
DAV:  27    -0.164629250828E+03   -0.11839E-05   -0.61708E-08  1583   0.175E-03    0.179E-04
DAV:  28    -0.164629251789E+03   -0.96107E-06   -0.27480E-08  1510   0.113E-03
   3 F= -.16462925E+03 E0= -.16459090E+03  d E =-.132759E+00
       N       E                     dE             d eps       ncg     rms          rms(c)
DAV:   1    -0.164629785065E+03   -0.53424E-03   -0.33851E-02  2643   0.328E-01    0.583E-02
DAV:   2    -0.164629981693E+03   -0.19663E-03   -0.23980E-03  4187   0.191E-01    0.593E-02
DAV:   3    -0.164629935900E+03    0.45793E-04   -0.41844E-04  3608   0.316E-01    0.431E-02
DAV:   4    -0.164629913289E+03    0.22611E-04   -0.11198E-04  3138   0.256E-01    0.292E-02
DAV:   5    -0.164629895779E+03    0.17511E-04   -0.46850E-05  3848   0.113E-01    0.827E-03
DAV:   6    -0.164629896877E+03   -0.10984E-05   -0.18680E-05  3312   0.566E-02    0.684E-03
DAV:   7    -0.164629896853E+03    0.23982E-07   -0.65708E-06  2679   0.410E-02
   4 F= -.16462990E+03 E0= -.16459147E+03  d E =-.133404E+00
       N       E                     dE             d eps       ncg     rms          rms(c)
DAV:   1    -0.164754025009E+03   -0.12413E+00   -0.75494E+01  2610   0.185E+01    0.133E+00
DAV:   2    -0.164965307832E+03   -0.21128E+00   -0.22596E+00  3968   0.694E+00    0.124E+00
DAV:   3    -0.164949017174E+03    0.16291E-01   -0.11331E-01  3035   0.521E+00    0.662E-01
DAV:   4    -0.164947942010E+03    0.10752E-02   -0.20975E-02  3484   0.231E+00    0.517E-01
DAV:   5    -0.164951044704E+03   -0.31027E-02   -0.21270E-02  3176   0.298E+00    0.441E-01
DAV:   6    -0.164946856494E+03    0.41882E-02   -0.20382E-02  4436   0.269E+00    0.138E-01
DAV:   7    -0.164946816462E+03    0.40032E-04   -0.60229E-03  4285   0.121E+00    0.693E-02
DAV:   8    -0.164946921216E+03   -0.10475E-03   -0.20153E-03  3020   0.415E-01    0.506E-02
DAV:   9    -0.164946928264E+03   -0.70483E-05   -0.51272E-04  2994   0.194E-01    0.303E-02
DAV:  10    -0.164946921157E+03    0.71064E-05   -0.86963E-05  3150   0.116E-01    0.159E-02
DAV:  11    -0.164946922298E+03   -0.11409E-05   -0.45199E-05  3678   0.702E-02    0.816E-03
DAV:  12    -0.164946923345E+03   -0.10468E-05   -0.82801E-06  2941   0.449E-02    0.384E-03
DAV:  13    -0.164946924721E+03   -0.13757E-05   -0.31496E-06  2062   0.282E-02    0.249E-03
DAV:  14    -0.164946925847E+03   -0.11264E-05   -0.13420E-06  1608   0.129E-02    0.947E-04
DAV:  15    -0.164946927472E+03   -0.16242E-05   -0.55508E-07  1539   0.598E-03    0.105E-03
DAV:  16    -0.164946928006E+03   -0.53464E-06   -0.33338E-07  1596   0.542E-03
   5 F= -.16494693E+03 E0= -.16490749E+03  d E =-.317031E+00
       N       E                     dE             d eps       ncg     rms          rms(c)
DAV:   1    -0.163494347170E+03    0.14526E+01   -0.71698E+02  2759   0.632E+01    0.543E+00
DAV:   2    -0.165676550819E+03   -0.21822E+01   -0.23197E+01  4100   0.265E+01    0.417E+00
DAV:   3    -0.165553536804E+03    0.12301E+00   -0.16987E+00  3066   0.245E+01    0.258E+00
DAV:   4    -0.165520818087E+03    0.32719E-01   -0.47906E-01  3148   0.130E+01    0.195E+00
DAV:   5    -0.165520305274E+03    0.51281E-03   -0.18152E-01  3735   0.825E+00    0.149E+00
DAV:   6    -0.165498101259E+03    0.22204E-01   -0.14594E-01  3891   0.562E+00    0.521E-01
DAV:   7    -0.165500372523E+03   -0.22713E-02   -0.67675E-02  3143   0.355E+00    0.250E-01
DAV:   8    -0.165501293485E+03   -0.92096E-03   -0.23209E-02  3023   0.163E+00    0.135E-01
DAV:   9    -0.165501514368E+03   -0.22088E-03   -0.54084E-03  3076   0.698E-01    0.977E-02
DAV:  10    -0.165501557999E+03   -0.43631E-04   -0.19441E-03  3026   0.482E-01    0.491E-02
DAV:  11    -0.165501589642E+03   -0.31643E-04   -0.44349E-04  3421   0.191E-01    0.321E-02
DAV:  12    -0.165501604438E+03   -0.14797E-04   -0.14643E-04  2979   0.191E-01    0.200E-02
DAV:  13    -0.165501611637E+03   -0.71981E-05   -0.45349E-05  3125   0.116E-01    0.932E-03
DAV:  14    -0.165501624338E+03   -0.12701E-04   -0.25237E-05  3574   0.536E-02    0.447E-03
DAV:  15    -0.165501628671E+03   -0.43330E-05   -0.45470E-06  2524   0.255E-02    0.278E-03
DAV:  16    -0.165501634406E+03   -0.57353E-05   -0.14168E-06  1574   0.128E-02    0.133E-03
DAV:  17    -0.165501640265E+03   -0.58584E-05   -0.75889E-07  1627   0.509E-03    0.896E-04
DAV:  18    -0.165501643765E+03   -0.35006E-05   -0.41337E-07  1605   0.634E-03    0.915E-04
DAV:  19    -0.165501647153E+03   -0.33879E-05   -0.28985E-07  1566   0.433E-03    0.441E-04
DAV:  20    -0.165501650528E+03   -0.33753E-05   -0.27629E-07  1608   0.263E-03    0.471E-04
DAV:  21    -0.165501652625E+03   -0.20968E-05   -0.17909E-07  1579   0.278E-03    0.366E-04
DAV:  22    -0.165501654446E+03   -0.18203E-05   -0.14759E-07  1576   0.198E-03    0.231E-04
DAV:  23    -0.165501655375E+03   -0.92929E-06   -0.92844E-08  1579   0.158E-03
   6 F= -.16550166E+03 E0= -.16546104E+03  d E =-.871759E+00
       N       E                     dE             d eps       ncg     rms          rms(c)
DAV:   1    -0.165300066929E+03    0.20159E+00   -0.90300E+01  2610   0.202E+01    0.155E+00
DAV:   2    -0.165558920681E+03   -0.25885E+00   -0.27767E+00  4002   0.826E+00    0.146E+00
DAV:   3    -0.165536444447E+03    0.22476E-01   -0.16792E-01  2973   0.643E+00    0.759E-01
DAV:   4    -0.165534776671E+03    0.16678E-02   -0.29677E-02  3516   0.255E+00    0.561E-01
DAV:   5    -0.165538547482E+03   -0.37708E-02   -0.22309E-02  3157   0.337E+00    0.486E-01
DAV:   6    -0.165533548540E+03    0.49989E-02   -0.21887E-02  4009   0.325E+00    0.172E-01
DAV:   7    -0.165533432819E+03    0.11572E-03   -0.85779E-03  4508   0.143E+00    0.755E-02
DAV:   8    -0.165533609355E+03   -0.17654E-03   -0.28361E-03  3012   0.444E-01    0.561E-02
DAV:   9    -0.165533615598E+03   -0.62431E-05   -0.60569E-04  2972   0.224E-01    0.335E-02
DAV:  10    -0.165533612256E+03    0.33420E-05   -0.12645E-04  3069   0.145E-01    0.190E-02
DAV:  11    -0.165533616388E+03   -0.41324E-05   -0.59639E-05  3670   0.806E-02    0.855E-03
DAV:  12    -0.165533618760E+03   -0.23717E-05   -0.10786E-05  3011   0.502E-02    0.464E-03
DAV:  13    -0.165533620448E+03   -0.16874E-05   -0.34694E-06  2298   0.284E-02    0.205E-03
DAV:  14    -0.165533622819E+03   -0.23711E-05   -0.17356E-06  1582   0.112E-02    0.150E-03
DAV:  15    -0.165533624916E+03   -0.20970E-05   -0.67449E-07  1584   0.756E-03    0.116E-03
DAV:  16    -0.165533625999E+03   -0.10832E-05   -0.35873E-07  1580   0.572E-03    0.620E-04
DAV:  17    -0.165533627843E+03   -0.18443E-05   -0.26481E-07  1534   0.313E-03    0.423E-04
DAV:  18    -0.165533628948E+03   -0.11047E-05   -0.16006E-07  1565   0.278E-03    0.403E-04
DAV:  19    -0.165533630133E+03   -0.11847E-05   -0.11420E-07  1534   0.215E-03    0.304E-04
DAV:  20    -0.165533630783E+03   -0.65035E-06   -0.75343E-08  1570   0.153E-03
   7 F= -.16553363E+03 E0= -.16549331E+03  d E =-.903734E+00
       N       E                     dE             d eps       ncg     rms          rms(c)
DAV:   1    -0.162392825733E+03    0.31408E+01   -0.24713E+02  2610   0.308E+01    0.552E+00
DAV:   2    -0.163639582019E+03   -0.12468E+01   -0.13901E+01  3916   0.116E+01    0.310E+00
DAV:   3    -0.163563243646E+03    0.76338E-01   -0.74069E-01  3159   0.162E+01    0.231E+00
DAV:   4    -0.163527486388E+03    0.35757E-01   -0.65324E-01  3207   0.194E+01    0.182E+00
DAV:   5    -0.163443958149E+03    0.83528E-01   -0.23578E-01  3226   0.123E+01    0.880E-01
DAV:   6    -0.163431105239E+03    0.12853E-01   -0.10115E-01  4588   0.588E+00    0.257E-01
DAV:   7    -0.163433185712E+03   -0.20805E-02   -0.39528E-02  3564   0.171E+00    0.197E-01
DAV:   8    -0.163433303500E+03   -0.11779E-03   -0.10594E-02  3020   0.110E+00    0.144E-01
DAV:   9    -0.163433241738E+03    0.61762E-04   -0.39545E-03  3167   0.793E-01    0.713E-02
DAV:  10    -0.163433427371E+03   -0.18563E-03   -0.92276E-04  3991   0.331E-01    0.482E-02
DAV:  11    -0.163433603556E+03   -0.17618E-03   -0.34800E-04  3018   0.213E-01    0.261E-02
DAV:  12    -0.163433807417E+03   -0.20386E-03   -0.11044E-04  3204   0.127E-01    0.186E-02
DAV:  13    -0.163434067253E+03   -0.25984E-03   -0.67304E-05  3092   0.109E-01    0.116E-02
DAV:  14    -0.163434295164E+03   -0.22791E-03   -0.38429E-05  3124   0.642E-02    0.893E-03
DAV:  15    -0.163434497189E+03   -0.20202E-03   -0.17337E-05  3596   0.471E-02    0.675E-03
DAV:  16    -0.163434646233E+03   -0.14904E-03   -0.10793E-05  3076   0.390E-02    0.427E-03
DAV:  17    -0.163434765068E+03   -0.11884E-03   -0.83082E-06  2756   0.167E-02    0.259E-03
DAV:  18    -0.163434826031E+03   -0.60963E-04   -0.21587E-06  1932   0.147E-02    0.250E-03
DAV:  19    -0.163434858546E+03   -0.32514E-04   -0.12963E-06  1826   0.122E-02    0.146E-03
DAV:  20    -0.163434883532E+03   -0.24986E-04   -0.11253E-06  1756   0.728E-03    0.130E-03
DAV:  21    -0.163434901672E+03   -0.18140E-04   -0.90216E-07  1674   0.711E-03    0.102E-03
DAV:  22    -0.163434909364E+03   -0.76920E-05   -0.43749E-07  1639   0.527E-03    0.878E-04
DAV:  23    -0.163434916228E+03   -0.68642E-05   -0.34652E-07  1600   0.378E-03    0.376E-04
DAV:  24    -0.163434920361E+03   -0.41332E-05   -0.21298E-07  1602   0.262E-03    0.447E-04
DAV:  25    -0.163434922027E+03   -0.16658E-05   -0.10164E-07  1610   0.210E-03    0.347E-04
DAV:  26    -0.163434923807E+03   -0.17796E-05   -0.64718E-08  1538   0.152E-03    0.148E-04
DAV:  27    -0.163434925017E+03   -0.12100E-05   -0.38985E-08  1554   0.106E-03    0.172E-04
DAV:  28    -0.163434925413E+03   -0.39604E-06   -0.20496E-08  1583   0.100E-03
   8 F= -.16343493E+03 E0= -.16339546E+03  d E =0.209871E+01
       N       E                     dE             d eps       ncg     rms          rms(c)
DAV:   1    -0.165018937978E+03   -0.15840E+01   -0.21735E+02  2610   0.268E+01    0.402E+00
DAV:   2    -0.165670121549E+03   -0.65118E+00   -0.92620E+00  3956   0.935E+00    0.320E+00
DAV:   3    -0.165606481432E+03    0.63640E-01   -0.38263E-01  3092   0.846E+00    0.248E+00
DAV:   4    -0.165603860441E+03    0.26210E-02   -0.19633E-01  3132   0.984E+00    0.208E+00
DAV:   5    -0.165596445739E+03    0.74147E-02   -0.27776E-01  3200   0.119E+01    0.129E+00
DAV:   6    -0.165556066731E+03    0.40379E-01   -0.11559E-01  3362   0.998E+00    0.468E-01
DAV:   7    -0.165554409675E+03    0.16571E-02   -0.47347E-02  4530   0.300E+00    0.205E-01
DAV:   8    -0.165555412169E+03   -0.10025E-02   -0.14543E-02  3199   0.118E+00    0.139E-01
DAV:   9    -0.165555997546E+03   -0.58538E-03   -0.52018E-03  2872   0.681E-01    0.832E-02
DAV:  10    -0.165556834415E+03   -0.83687E-03   -0.14929E-03  3348   0.366E-01    0.445E-02
DAV:  11    -0.165557023506E+03   -0.18909E-03   -0.61579E-04  2972   0.283E-01    0.388E-02
DAV:  12    -0.165557149188E+03   -0.12568E-03   -0.22158E-04  2971   0.169E-01    0.244E-02
DAV:  13    -0.165557372219E+03   -0.22303E-03   -0.97273E-05  3323   0.859E-02    0.167E-02
DAV:  14    -0.165557537663E+03   -0.16544E-03   -0.36577E-05  3496   0.493E-02    0.101E-02
DAV:  15    -0.165557728821E+03   -0.19116E-03   -0.45974E-05  3206   0.687E-02    0.983E-03
DAV:  16    -0.165557833309E+03   -0.10449E-03   -0.19809E-05  3656   0.335E-02    0.887E-03
DAV:  17    -0.165557913736E+03   -0.80427E-04   -0.12427E-05  3227   0.290E-02    0.381E-03
DAV:  18    -0.165557953543E+03   -0.39807E-04   -0.53678E-06  2519   0.205E-02    0.310E-03
DAV:  19    -0.165557993193E+03   -0.39649E-04   -0.53010E-06  2350   0.172E-02    0.269E-03
DAV:  20    -0.165558008855E+03   -0.15662E-04   -0.16932E-06  1842   0.104E-02    0.146E-03
DAV:  21    -0.165558019741E+03   -0.10886E-04   -0.80224E-07  1614   0.557E-03    0.979E-04
DAV:  22    -0.165558025988E+03   -0.62471E-05   -0.53340E-07  1655   0.649E-03    0.919E-04
DAV:  23    -0.165558030947E+03   -0.49593E-05   -0.39873E-07  1614   0.415E-03    0.632E-04
DAV:  24    -0.165558034767E+03   -0.38195E-05   -0.30824E-07  1589   0.341E-03    0.586E-04
DAV:  25    -0.165558036285E+03   -0.15184E-05   -0.15496E-07  1600   0.295E-03    0.413E-04
DAV:  26    -0.165558037688E+03   -0.14033E-05   -0.10425E-07  1544   0.192E-03    0.218E-04
DAV:  27    -0.165558038484E+03   -0.79506E-06   -0.55433E-08  1536   0.131E-03
   9 F= -.16555804E+03 E0= -.16551782E+03  d E =-.244077E-01
       N       E                     dE             d eps       ncg     rms          rms(c)
DAV:   1    -0.165562981985E+03   -0.49443E-02   -0.28657E-01  2630   0.103E+00    0.128E-01
DAV:   2    -0.165564130624E+03   -0.11486E-02   -0.13087E-02  3846   0.383E-01    0.998E-02
DAV:   3    -0.165564080918E+03    0.49705E-04   -0.87082E-04  3048   0.526E-01    0.777E-02
DAV:   4    -0.165564023274E+03    0.57644E-04   -0.46232E-04  2977   0.524E-01    0.555E-02
DAV:   5    -0.165563961163E+03    0.62111E-04   -0.22664E-04  3353   0.367E-01    0.282E-02
DAV:   6    -0.165563952815E+03    0.83483E-05   -0.10518E-04  4149   0.208E-01    0.112E-02
DAV:   7    -0.165563955271E+03   -0.24557E-05   -0.38197E-05  3479   0.767E-02    0.753E-03
DAV:   8    -0.165563956999E+03   -0.17279E-05   -0.11246E-05  2894   0.349E-02    0.487E-03
DAV:   9    -0.165563958918E+03   -0.19192E-05   -0.57944E-06  2773   0.288E-02    0.273E-03
DAV:  10    -0.165563960565E+03   -0.16472E-05   -0.94533E-07  1643   0.150E-02    0.129E-03
DAV:  11    -0.165563961785E+03   -0.12195E-05   -0.42909E-07  1604   0.692E-03    0.107E-03
DAV:  12    -0.165563962961E+03   -0.11767E-05   -0.24493E-07  1558   0.479E-03    0.621E-04
DAV:  13    -0.165563963771E+03   -0.80967E-06   -0.20864E-07  1586   0.369E-03
  10 F= -.16556396E+03 E0= -.16552379E+03  d E =-.303330E-01
       N       E                     dE             d eps       ncg     rms          rms(c)
DAV:   1    -0.165564858940E+03   -0.89598E-03   -0.24873E-01  2610   0.963E-01    0.122E-01
DAV:   2    -0.165565875495E+03   -0.10166E-02   -0.11562E-02  3854   0.355E-01    0.938E-02
DAV:   3    -0.165565828496E+03    0.46999E-04   -0.75389E-04  3036   0.490E-01    0.728E-02
DAV:   4    -0.165565780194E+03    0.48302E-04   -0.41310E-04  2970   0.499E-01    0.523E-02
DAV:   5    -0.165565722956E+03    0.57238E-04   -0.20369E-04  3343   0.352E-01    0.265E-02
DAV:   6    -0.165565715557E+03    0.73988E-05   -0.92307E-05  4150   0.195E-01    0.103E-02
DAV:   7    -0.165565717997E+03   -0.24399E-05   -0.33723E-05  3546   0.706E-02    0.697E-03
DAV:   8    -0.165565719818E+03   -0.18206E-05   -0.96481E-06  2862   0.320E-02    0.449E-03
DAV:   9    -0.165565721817E+03   -0.19995E-05   -0.50537E-06  2659   0.273E-02    0.258E-03
DAV:  10    -0.165565723586E+03   -0.17688E-05   -0.83125E-07  1707   0.138E-02    0.120E-03
DAV:  11    -0.165565724982E+03   -0.13956E-05   -0.37888E-07  1636   0.664E-03    0.101E-03
DAV:  12    -0.165565726168E+03   -0.11862E-05   -0.23024E-07  1550   0.444E-03    0.587E-04
DAV:  13    -0.165565727136E+03   -0.96852E-06   -0.20718E-07  1562   0.367E-03
  11 F= -.16556573E+03 E0= -.16552559E+03  d E =-.320964E-01
       N       E                     dE             d eps       ncg     rms          rms(c)
DAV:   1    -0.165511370731E+03    0.54355E-01   -0.79991E+01  2610   0.193E+01    0.110E+00
DAV:   2    -0.165718506269E+03   -0.20714E+00   -0.21905E+00  3996   0.637E+00    0.101E+00
DAV:   3    -0.165711773419E+03    0.67328E-02   -0.96180E-02  3042   0.485E+00    0.653E-01
DAV:   4    -0.165709986359E+03    0.17871E-02   -0.22343E-02  3016   0.254E+00    0.518E-01
DAV:   5    -0.165710727045E+03   -0.74069E-03   -0.15711E-02  3399   0.307E+00    0.420E-01
DAV:   6    -0.165707507937E+03    0.32191E-02   -0.13194E-02  3511   0.298E+00    0.144E-01
DAV:   7    -0.165707419574E+03    0.88363E-04   -0.75289E-03  4331   0.925E-01    0.688E-02
DAV:   8    -0.165707529060E+03   -0.10949E-03   -0.22062E-03  3100   0.377E-01    0.538E-02
DAV:   9    -0.165707522590E+03    0.64696E-05   -0.40308E-04  2994   0.192E-01    0.354E-02
DAV:  10    -0.165707500774E+03    0.21816E-04   -0.10569E-04  4190   0.120E-01    0.137E-02
DAV:  11    -0.165707503654E+03   -0.28797E-05   -0.32567E-05  3704   0.734E-02    0.908E-03
DAV:  12    -0.165707503916E+03   -0.26257E-06   -0.13773E-05  2807   0.582E-02    0.388E-03
DAV:  13    -0.165707504869E+03   -0.95263E-06   -0.35717E-06  2126   0.232E-02
  12 F= -.16570750E+03 E0= -.16566789E+03  d E =-.141778E+00
       N       E                     dE             d eps       ncg     rms          rms(c)
DAV:   1    -0.165428802117E+03    0.27870E+00   -0.13338E+02  2620   0.252E+01    0.148E+00
DAV:   2    -0.165783379114E+03   -0.35458E+00   -0.37341E+00  3996   0.865E+00    0.133E+00
DAV:   3    -0.165770984799E+03    0.12394E-01   -0.16946E-01  3026   0.673E+00    0.863E-01
DAV:   4    -0.165768398405E+03    0.25864E-02   -0.40565E-02  3026   0.351E+00    0.694E-01
DAV:   5    -0.165769658052E+03   -0.12596E-02   -0.27447E-02  3547   0.402E+00    0.570E-01
DAV:   6    -0.165764092917E+03    0.55651E-02   -0.22509E-02  3732   0.370E+00    0.185E-01
DAV:   7    -0.165763991266E+03    0.10165E-03   -0.12460E-02  4156   0.116E+00    0.841E-02
DAV:   8    -0.165764210823E+03   -0.21956E-03   -0.37514E-03  3100   0.491E-01    0.691E-02
DAV:   9    -0.165764197643E+03    0.13179E-04   -0.64881E-04  3015   0.250E-01    0.429E-02
DAV:  10    -0.165764169787E+03    0.27857E-04   -0.15389E-04  4398   0.138E-01    0.171E-02
DAV:  11    -0.165764176029E+03   -0.62422E-05   -0.49801E-05  3712   0.905E-02    0.117E-02
DAV:  12    -0.165764176889E+03   -0.86019E-06   -0.21975E-05  2972   0.727E-02    0.475E-03
DAV:  13    -0.165764178971E+03   -0.20820E-05   -0.66295E-06  2654   0.285E-02    0.252E-03
DAV:  14    -0.165764180231E+03   -0.12600E-05   -0.13679E-06  1610   0.133E-02    0.179E-03
DAV:  15    -0.165764181096E+03   -0.86491E-06   -0.61499E-07  1557   0.102E-02
  13 F= -.16576418E+03 E0= -.16572482E+03  d E =-.198454E+00
       N       E                     dE             d eps       ncg     rms          rms(c)
DAV:   1    -0.165772713679E+03   -0.85334E-02   -0.91236E+00  2610   0.640E+00    0.453E-01
DAV:   2    -0.165799134242E+03   -0.26421E-01   -0.28780E-01  3936   0.208E+00    0.406E-01
DAV:   3    -0.165798261307E+03    0.87294E-03   -0.17417E-02  2910   0.215E+00    0.295E-01
DAV:   4    -0.165797611979E+03    0.64933E-03   -0.52894E-03  3020   0.172E+00    0.221E-01
DAV:   5    -0.165797105529E+03    0.50645E-03   -0.27452E-03  3261   0.133E+00    0.151E-01
DAV:   6    -0.165796846173E+03    0.25936E-03   -0.23942E-03  3924   0.829E-01    0.416E-02
DAV:   7    -0.165796879827E+03   -0.33653E-04   -0.78062E-04  3671   0.237E-01    0.262E-02
DAV:   8    -0.165796891740E+03   -0.11913E-04   -0.17102E-04  3018   0.128E-01    0.181E-02
DAV:   9    -0.165796900638E+03   -0.88983E-05   -0.55426E-05  3024   0.102E-01    0.112E-02
DAV:  10    -0.165796912584E+03   -0.11946E-04   -0.17449E-05  3174   0.593E-02    0.449E-03
DAV:  11    -0.165796920191E+03   -0.76065E-05   -0.59978E-06  2840   0.291E-02    0.397E-03
DAV:  12    -0.165796924303E+03   -0.41126E-05   -0.16039E-06  1591   0.179E-02    0.209E-03
DAV:  13    -0.165796932130E+03   -0.78266E-05   -0.80916E-07  1681   0.100E-02    0.102E-03
DAV:  14    -0.165796937743E+03   -0.56126E-05   -0.76911E-07  1634   0.534E-03    0.112E-03
DAV:  15    -0.165796940731E+03   -0.29886E-05   -0.43610E-07  1572   0.603E-03    0.817E-04
DAV:  16    -0.165796944004E+03   -0.32729E-05   -0.27962E-07  1616   0.339E-03    0.595E-04
DAV:  17    -0.165796949011E+03   -0.50064E-05   -0.38434E-07  1584   0.277E-03    0.457E-04
DAV:  18    -0.165796950890E+03   -0.18791E-05   -0.18489E-07  1598   0.306E-03    0.473E-04
DAV:  19    -0.165796952154E+03   -0.12646E-05   -0.12509E-07  1554   0.225E-03    0.232E-04
DAV:  20    -0.165796953570E+03   -0.14158E-05   -0.10185E-07  1558   0.133E-03    0.245E-04
DAV:  21    -0.165796953979E+03   -0.40903E-06   -0.45058E-08  1572   0.136E-03
  14 F= -.16579695E+03 E0= -.16575739E+03  d E =-.327729E-01
       N       E                     dE             d eps       ncg     rms          rms(c)
DAV:   1    -0.165795566459E+03    0.13871E-02   -0.17634E+00  2610   0.280E+00    0.197E-01
DAV:   2    -0.165800526101E+03   -0.49596E-02   -0.54165E-02  3902   0.855E-01    0.174E-01
DAV:   3    -0.165800384561E+03    0.14154E-03   -0.33273E-03  2910   0.905E-01    0.132E-01
DAV:   4    -0.165800253579E+03    0.13098E-03   -0.10429E-03  2999   0.763E-01    0.975E-02
DAV:   5    -0.165800142071E+03    0.11151E-03   -0.47515E-04  3311   0.556E-01    0.630E-02
DAV:   6    -0.165800100254E+03    0.41816E-04   -0.41799E-04  3788   0.360E-01    0.185E-02
DAV:   7    -0.165800106621E+03   -0.63669E-05   -0.14291E-04  3765   0.114E-01    0.116E-02
DAV:   8    -0.165800108725E+03   -0.21041E-05   -0.27324E-05  3052   0.542E-02    0.730E-03
DAV:   9    -0.165800111478E+03   -0.27529E-05   -0.10981E-05  2974   0.423E-02    0.502E-03
DAV:  10    -0.165800114179E+03   -0.27007E-05   -0.34946E-06  2158   0.290E-02    0.197E-03
DAV:  11    -0.165800116179E+03   -0.19999E-05   -0.11919E-06  1598   0.117E-02    0.185E-03
DAV:  12    -0.165800117458E+03   -0.12788E-05   -0.52861E-07  1552   0.826E-03    0.102E-03
DAV:  13    -0.165800119175E+03   -0.17169E-05   -0.28145E-07  1548   0.547E-03    0.560E-04
DAV:  14    -0.165800120875E+03   -0.17001E-05   -0.33566E-07  1531   0.297E-03    0.571E-04
DAV:  15    -0.165800121865E+03   -0.99005E-06   -0.16303E-07  1563   0.292E-03
  15 F= -.16580012E+03 E0= -.16576045E+03  d E =-.359408E-01
       N       E                     dE             d eps       ncg     rms          rms(c)
DAV:   1    -0.165806465490E+03   -0.63446E-02   -0.17840E-01  2610   0.823E-01    0.720E-02
DAV:   2    -0.165806994570E+03   -0.52908E-03   -0.57117E-03  3894   0.283E-01    0.595E-02
DAV:   3    -0.165806977910E+03    0.16660E-04   -0.33563E-04  2886   0.256E-01    0.407E-02
DAV:   4    -0.165806976068E+03    0.18418E-05   -0.10918E-04  3014   0.221E-01    0.308E-02
DAV:   5    -0.165806977767E+03   -0.16984E-05   -0.69915E-05  3138   0.226E-01    0.226E-02
DAV:   6    -0.165806971793E+03    0.59732E-05   -0.38454E-05  3444   0.160E-01    0.687E-03
DAV:   7    -0.165806971854E+03   -0.60885E-07   -0.16052E-05  3784   0.465E-02    0.369E-03
DAV:   8    -0.165806972244E+03   -0.38953E-06   -0.57164E-06  2684   0.202E-02
  16 F= -.16580697E+03 E0= -.16576726E+03  d E =-.685038E-02
       N       E                     dE             d eps       ncg     rms          rms(c)
DAV:   1    -0.165822179008E+03   -0.15207E-01   -0.16060E+00  2610   0.247E+00    0.216E-01
DAV:   2    -0.165826973310E+03   -0.47943E-02   -0.51703E-02  3886   0.841E-01    0.178E-01
DAV:   3    -0.165826845679E+03    0.12763E-03   -0.30585E-03  2894   0.777E-01    0.123E-01
DAV:   4    -0.165826817482E+03    0.28197E-04   -0.10196E-03  3004   0.682E-01    0.936E-02
DAV:   5    -0.165826829729E+03   -0.12248E-04   -0.61727E-04  3130   0.668E-01    0.673E-02
DAV:   6    -0.165826771797E+03    0.57933E-04   -0.34026E-04  3554   0.467E-01    0.201E-02
DAV:   7    -0.165826773990E+03   -0.21934E-05   -0.14238E-04  4078   0.137E-01    0.114E-02
DAV:   8    -0.165826775932E+03   -0.19417E-05   -0.48715E-05  3172   0.618E-02    0.793E-03
DAV:   9    -0.165826776221E+03   -0.28906E-06   -0.11065E-05  2858   0.383E-02    0.546E-03
DAV:  10    -0.165826776178E+03    0.42666E-07   -0.30706E-06  1910   0.242E-02
  17 F= -.16582678E+03 E0= -.16578696E+03  d E =-.266543E-01
       N       E                     dE             d eps       ncg     rms          rms(c)
DAV:   1    -0.165844385481E+03   -0.17609E-01   -0.64247E+00  2610   0.494E+00    0.433E-01
DAV:   2    -0.165863807187E+03   -0.19422E-01   -0.20856E-01  3902   0.165E+00    0.352E-01
DAV:   3    -0.165863421613E+03    0.38557E-03   -0.12325E-02  2902   0.163E+00    0.251E-01
DAV:   4    -0.165863227882E+03    0.19373E-03   -0.43960E-03  3020   0.146E+00    0.193E-01
DAV:   5    -0.165863161210E+03    0.66672E-04   -0.23320E-03  3162   0.128E+00    0.132E-01
DAV:   6    -0.165862974252E+03    0.18696E-03   -0.13126E-03  3618   0.858E-01    0.380E-02
DAV:   7    -0.165862996977E+03   -0.22725E-04   -0.55522E-04  3949   0.258E-01    0.237E-02
DAV:   8    -0.165863002609E+03   -0.56319E-05   -0.17530E-04  3076   0.132E-01    0.156E-02
DAV:   9    -0.165863003633E+03   -0.10241E-05   -0.44311E-05  2978   0.790E-02    0.102E-02
DAV:  10    -0.165863003760E+03   -0.12689E-06   -0.12699E-05  3064   0.446E-02    0.385E-03
DAV:  11    -0.165863004935E+03   -0.11751E-05   -0.43457E-06  2642   0.227E-02    0.243E-03
DAV:  12    -0.165863005815E+03   -0.88004E-06   -0.17004E-06  1586   0.176E-02
  18 F= -.16586301E+03 E0= -.16582304E+03  d E =-.628840E-01
       N       E                     dE             d eps       ncg     rms          rms(c)
DAV:   1    -0.165843174813E+03    0.19830E-01   -0.25674E+01  2610   0.988E+00    0.904E-01
DAV:   2    -0.165925027433E+03   -0.81853E-01   -0.87215E-01  3952   0.332E+00    0.713E-01
DAV:   3    -0.165923734008E+03    0.12934E-02   -0.49908E-02  2944   0.351E+00    0.521E-01
DAV:   4    -0.165922450101E+03    0.12839E-02   -0.19866E-02  3038   0.316E+00    0.408E-01
DAV:   5    -0.165921561981E+03    0.88812E-03   -0.85873E-03  3260   0.238E+00    0.265E-01
DAV:   6    -0.165920993314E+03    0.56867E-03   -0.53178E-03  3598   0.157E+00    0.799E-02
DAV:   7    -0.165921128042E+03   -0.13473E-03   -0.22563E-03  3788   0.525E-01    0.498E-02
DAV:   8    -0.165921147821E+03   -0.19779E-04   -0.67884E-04  3084   0.294E-01    0.313E-02
DAV:   9    -0.165921151269E+03   -0.34479E-05   -0.18365E-04  2908   0.160E-01    0.189E-02
DAV:  10    -0.165921153307E+03   -0.20381E-05   -0.53076E-05  3112   0.852E-02    0.816E-03
DAV:  11    -0.165921157175E+03   -0.38680E-05   -0.17960E-05  3036   0.516E-02    0.505E-03
DAV:  12    -0.165921159948E+03   -0.27738E-05   -0.72434E-06  2634   0.335E-02    0.298E-03
DAV:  13    -0.165921162080E+03   -0.21312E-05   -0.14683E-06  1628   0.144E-02    0.150E-03
DAV:  14    -0.165921164954E+03   -0.28748E-05   -0.67866E-07  1610   0.696E-03    0.112E-03
DAV:  15    -0.165921166923E+03   -0.19687E-05   -0.51269E-07  1626   0.764E-03    0.830E-04
DAV:  16    -0.165921168203E+03   -0.12795E-05   -0.27277E-07  1554   0.358E-03    0.597E-04
DAV:  17    -0.165921170295E+03   -0.20924E-05   -0.24495E-07  1560   0.365E-03    0.608E-04
DAV:  18    -0.165921171594E+03   -0.12990E-05   -0.15647E-07  1604   0.289E-03    0.465E-04
DAV:  19    -0.165921172680E+03   -0.10862E-05   -0.15058E-07  1592   0.243E-03    0.301E-04
DAV:  20    -0.165921173717E+03   -0.10368E-05   -0.10305E-07  1554   0.177E-03    0.298E-04
DAV:  21    -0.165921174180E+03   -0.46281E-06   -0.64680E-08  1570   0.153E-03
  19 F= -.16592117E+03 E0= -.16588121E+03  d E =-.121052E+00
       N       E                     dE             d eps       ncg     rms          rms(c)
DAV:   1    -0.165615334158E+03    0.30584E+00   -0.10206E+02  2610   0.198E+01    0.226E+00
DAV:   2    -0.165986933836E+03   -0.37160E+00   -0.39098E+00  3970   0.695E+00    0.154E+00
DAV:   3    -0.165984392146E+03    0.25417E-02   -0.22585E-01  2986   0.824E+00    0.119E+00
DAV:   4    -0.165973144874E+03    0.11247E-01   -0.11081E-01  3040   0.725E+00    0.943E-01
DAV:   5    -0.165967881471E+03    0.52634E-02   -0.31752E-02  3366   0.419E+00    0.591E-01
DAV:   6    -0.165965859505E+03    0.20220E-02   -0.22551E-02  3362   0.286E+00    0.191E-01
DAV:   7    -0.165966550245E+03   -0.69074E-03   -0.10014E-02  3556   0.114E+00    0.103E-01
DAV:   8    -0.165966662137E+03   -0.11189E-03   -0.29509E-03  3052   0.632E-01    0.654E-02
DAV:   9    -0.165966674252E+03   -0.12114E-04   -0.82217E-04  2972   0.332E-01    0.363E-02
DAV:  10    -0.165966687389E+03   -0.13137E-04   -0.25211E-04  3133   0.197E-01    0.211E-02
DAV:  11    -0.165966694280E+03   -0.68908E-05   -0.82985E-05  3004   0.106E-01    0.112E-02
DAV:  12    -0.165966703755E+03   -0.94750E-05   -0.41266E-05  3020   0.728E-02    0.808E-03
DAV:  13    -0.165966708352E+03   -0.45975E-05   -0.84262E-06  2676   0.410E-02    0.423E-03
DAV:  14    -0.165966715268E+03   -0.69159E-05   -0.45004E-06  2567   0.178E-02    0.189E-03
DAV:  15    -0.165966720695E+03   -0.54273E-05   -0.10669E-06  1644   0.131E-02    0.176E-03
DAV:  16    -0.165966723800E+03   -0.31046E-05   -0.50066E-07  1642   0.742E-03    0.902E-04
DAV:  17    -0.165966729219E+03   -0.54187E-05   -0.44247E-07  1602   0.498E-03    0.699E-04
DAV:  18    -0.165966732210E+03   -0.29911E-05   -0.31777E-07  1644   0.437E-03    0.647E-04
DAV:  19    -0.165966735628E+03   -0.34178E-05   -0.33732E-07  1602   0.389E-03    0.499E-04
DAV:  20    -0.165966737550E+03   -0.19228E-05   -0.22556E-07  1639   0.266E-03    0.373E-04
DAV:  21    -0.165966738857E+03   -0.13068E-05   -0.14536E-07  1586   0.210E-03    0.340E-04
DAV:  22    -0.165966739529E+03   -0.67224E-06   -0.98248E-08  1636   0.190E-03
  20 F= -.16596674E+03 E0= -.16592805E+03  d E =-.166618E+00
       N       E                     dE             d eps       ncg     rms          rms(c)
DAV:   1    -0.165968856862E+03   -0.21180E-02   -0.20232E-02  2615   0.273E-01    0.238E-02
DAV:   2    -0.165968913212E+03   -0.56350E-04   -0.60785E-04  3916   0.807E-02    0.172E-02
DAV:   3    -0.165968911970E+03    0.12421E-05   -0.25945E-05  2959   0.652E-02    0.122E-02
DAV:   4    -0.165968912458E+03   -0.48807E-06   -0.11221E-05  2975   0.676E-02    0.973E-03
DAV:   5    -0.165968913252E+03   -0.79372E-06   -0.86091E-06  2544   0.739E-02
  21 F= -.16596891E+03 E0= -.16593024E+03  d E =-.217372E-02
       N       E                     dE             d eps       ncg     rms          rms(c)
DAV:   1    -0.165974850842E+03   -0.59384E-02   -0.18176E-01  2610   0.820E-01    0.718E-02
DAV:   2    -0.165975363886E+03   -0.51304E-03   -0.55358E-03  3888   0.235E-01    0.508E-02
DAV:   3    -0.165975355817E+03    0.80690E-05   -0.19401E-04  2940   0.204E-01    0.360E-02
DAV:   4    -0.165975364649E+03   -0.88328E-05   -0.12233E-04  3072   0.254E-01    0.319E-02
DAV:   5    -0.165975359810E+03    0.48394E-05   -0.79978E-05  3236   0.216E-01    0.158E-02
DAV:   6    -0.165975355649E+03    0.41607E-05   -0.29369E-05  3858   0.119E-01    0.508E-03
DAV:   7    -0.165975356628E+03   -0.97888E-06   -0.10250E-05  3732   0.306E-02    0.328E-03
DAV:   8    -0.165975356687E+03   -0.58382E-07   -0.24027E-06  1820   0.178E-02
  22 F= -.16597536E+03 E0= -.16593673E+03  d E =-.861716E-02
       N       E                     dE             d eps       ncg     rms          rms(c)
DAV:   1    -0.165985846815E+03   -0.10490E-01   -0.72850E-01  2610   0.164E+00    0.144E-01
DAV:   2    -0.165987898587E+03   -0.20518E-02   -0.22058E-02  3896   0.477E-01    0.102E-01
DAV:   3    -0.165987865408E+03    0.33179E-04   -0.90691E-04  2908   0.381E-01    0.733E-02
DAV:   4    -0.165987877506E+03   -0.12098E-04   -0.44239E-04  3030   0.428E-01    0.604E-02
DAV:   5    -0.165987889257E+03   -0.11752E-04   -0.31973E-04  3140   0.444E-01    0.420E-02
DAV:   6    -0.165987860806E+03    0.28451E-04   -0.14755E-04  3506   0.312E-01    0.113E-02
DAV:   7    -0.165987863272E+03   -0.24662E-05   -0.54424E-05  4186   0.768E-02    0.696E-03
DAV:   8    -0.165987863628E+03   -0.35611E-06   -0.14130E-05  2996   0.354E-02    0.493E-03
DAV:   9    -0.165987863641E+03   -0.12340E-07   -0.37148E-06  2253   0.227E-02
  23 F= -.16598786E+03 E0= -.16594935E+03  d E =-.211241E-01
       N       E                     dE             d eps       ncg     rms          rms(c)
DAV:   1    -0.166003278987E+03   -0.15415E-01   -0.29143E+00  2610   0.328E+00    0.290E-01
DAV:   2    -0.166011620672E+03   -0.83417E-02   -0.89188E-02  3912   0.942E-01    0.205E-01
DAV:   3    -0.166011501634E+03    0.11904E-03   -0.35302E-03  2918   0.792E-01    0.147E-01
DAV:   4    -0.166011549137E+03   -0.47503E-04   -0.18770E-03  3041   0.932E-01    0.125E-01
DAV:   5    -0.166011508246E+03    0.40891E-04   -0.12908E-03  3138   0.885E-01    0.808E-02
DAV:   6    -0.166011403448E+03    0.10480E-03   -0.55083E-04  3666   0.570E-01    0.212E-02
DAV:   7    -0.166011419065E+03   -0.15617E-04   -0.21009E-04  4086   0.136E-01    0.140E-02
DAV:   8    -0.166011420432E+03   -0.13670E-05   -0.49155E-05  3076   0.758E-02    0.101E-02
DAV:   9    -0.166011420181E+03    0.25047E-06   -0.13526E-05  2933   0.444E-02    0.600E-03
DAV:  10    -0.166011420057E+03    0.12439E-06   -0.42680E-06  2340   0.251E-02
  24 F= -.16601142E+03 E0= -.16597312E+03  d E =-.446805E-01
       N       E                     dE             d eps       ncg     rms          rms(c)
DAV:   1    -0.166018857582E+03   -0.74374E-02   -0.11648E+01  2610   0.655E+00    0.601E-01
DAV:   2    -0.166053357337E+03   -0.34500E-01   -0.36747E-01  3912   0.189E+00    0.415E-01
DAV:   3    -0.166052899261E+03    0.45808E-03   -0.14073E-02  2958   0.169E+00    0.301E-01
DAV:   4    -0.166053128137E+03   -0.22888E-03   -0.85028E-03  3073   0.206E+00    0.264E-01
DAV:   5    -0.166052473689E+03    0.65445E-03   -0.48181E-03  3146   0.166E+00    0.144E-01
DAV:   6    -0.166052220288E+03    0.25340E-03   -0.20341E-03  3850   0.990E-01    0.480E-02
DAV:   7    -0.166052280604E+03   -0.60316E-04   -0.81346E-04  3980   0.285E-01    0.277E-02
DAV:   8    -0.166052285431E+03   -0.48271E-05   -0.17375E-04  3012   0.158E-01    0.199E-02
DAV:   9    -0.166052283510E+03    0.19205E-05   -0.49293E-05  2984   0.844E-02    0.101E-02
DAV:  10    -0.166052284535E+03   -0.10242E-05   -0.20919E-05  3138   0.538E-02    0.605E-03
DAV:  11    -0.166052284760E+03   -0.22532E-06   -0.59670E-06  2804   0.323E-02
  25 F= -.16605228E+03 E0= -.16601444E+03  d E =-.855452E-01
       N       E                     dE             d eps       ncg     rms          rms(c)
DAV:   1    -0.165962625777E+03    0.89659E-01   -0.46437E+01  2610   0.131E+01    0.137E+00
DAV:   2    -0.166112794408E+03   -0.15017E+00   -0.15967E+00  3896   0.402E+00    0.892E-01
DAV:   3    -0.166110935439E+03    0.18590E-02   -0.66806E-02  2992   0.403E+00    0.659E-01
DAV:   4    -0.166110643250E+03    0.29219E-03   -0.38684E-02  3094   0.446E+00    0.570E-01
DAV:   5    -0.166107504102E+03    0.31391E-02   -0.18678E-02  3330   0.303E+00    0.303E-01
DAV:   6    -0.166106772278E+03    0.73182E-03   -0.90648E-03  3970   0.182E+00    0.116E-01
DAV:   7    -0.166106990085E+03   -0.21781E-03   -0.34393E-03  3900   0.626E-01    0.519E-02
DAV:   8    -0.166107018070E+03   -0.27985E-04   -0.84083E-04  2999   0.346E-01    0.439E-02
DAV:   9    -0.166107015349E+03    0.27205E-05   -0.27809E-04  3026   0.190E-01    0.232E-02
DAV:  10    -0.166107014177E+03    0.11721E-05   -0.86851E-05  3301   0.114E-01    0.993E-03
DAV:  11    -0.166107016601E+03   -0.24238E-05   -0.25806E-05  3188   0.673E-02    0.698E-03
DAV:  12    -0.166107018387E+03   -0.17862E-05   -0.10077E-05  2762   0.403E-02    0.258E-03
DAV:  13    -0.166107020501E+03   -0.21133E-05   -0.20037E-06  1714   0.124E-02    0.217E-03
DAV:  14    -0.166107021567E+03   -0.10668E-05   -0.10201E-06  1639   0.124E-02    0.119E-03
DAV:  15    -0.166107023122E+03   -0.15547E-05   -0.47141E-07  1602   0.662E-03    0.774E-04
DAV:  16    -0.166107023797E+03   -0.67498E-06   -0.30403E-07  1607   0.371E-03
  26 F= -.16610702E+03 E0= -.16607002E+03  d E =-.140284E+00
       N       E                     dE             d eps       ncg     rms          rms(c)
DAV:   1    -0.165393827633E+03    0.71320E+00   -0.18292E+02  2610   0.263E+01    0.417E+00
DAV:   2    -0.166125724189E+03   -0.73190E+00   -0.77100E+00  3901   0.882E+00    0.221E+00
DAV:   3    -0.166119757590E+03    0.59666E-02   -0.34790E-01  3023   0.969E+00    0.170E+00
DAV:   4    -0.166108242698E+03    0.11515E-01   -0.19583E-01  3128   0.958E+00    0.146E+00
DAV:   5    -0.166095712934E+03    0.12530E-01   -0.70790E-02  3382   0.576E+00    0.866E-01
DAV:   6    -0.166091587715E+03    0.41252E-02   -0.37784E-02  3848   0.355E+00    0.280E-01
DAV:   7    -0.166092806542E+03   -0.12188E-02   -0.14951E-02  3570   0.126E+00    0.110E-01
DAV:   8    -0.166092996056E+03   -0.18951E-03   -0.41663E-03  2949   0.788E-01    0.904E-02
DAV:   9    -0.166092986786E+03    0.92697E-05   -0.13110E-03  3044   0.428E-01    0.467E-02
DAV:  10    -0.166092984097E+03    0.26893E-05   -0.35973E-04  3194   0.251E-01    0.244E-02
DAV:  11    -0.166092988091E+03   -0.39945E-05   -0.12766E-04  3127   0.130E-01    0.155E-02
DAV:  12    -0.166092994729E+03   -0.66378E-05   -0.62129E-05  3026   0.963E-02    0.932E-03
DAV:  13    -0.166092997363E+03   -0.26335E-05   -0.11370E-05  3060   0.415E-02    0.533E-03
DAV:  14    -0.166093001617E+03   -0.42540E-05   -0.51894E-06  2626   0.211E-02    0.288E-03
DAV:  15    -0.166093005030E+03   -0.34135E-05   -0.13815E-06  1647   0.160E-02    0.184E-03
DAV:  16    -0.166093007095E+03   -0.20648E-05   -0.69344E-07  1650   0.933E-03    0.954E-04
DAV:  17    -0.166093009198E+03   -0.21035E-05   -0.45246E-07  1602   0.498E-03    0.560E-04
DAV:  18    -0.166093010258E+03   -0.10598E-05   -0.23620E-07  1620   0.328E-03    0.520E-04
DAV:  19    -0.166093012043E+03   -0.17845E-05   -0.21166E-07  1591   0.274E-03    0.325E-04
DAV:  20    -0.166093013184E+03   -0.11415E-05   -0.14847E-07  1618   0.184E-03    0.294E-04
DAV:  21    -0.166093013612E+03   -0.42806E-06   -0.77765E-08  1543   0.168E-03
  27 F= -.16609301E+03 E0= -.16605681E+03  d E =-.126274E+00
       N       E                     dE             d eps       ncg     rms          rms(c)
DAV:   1    -0.165932457188E+03    0.16056E+00   -0.64281E+01  2610   0.154E+01    0.149E+00
DAV:   2    -0.166129904732E+03   -0.19745E+00   -0.20751E+00  3908   0.533E+00    0.102E+00
DAV:   3    -0.166124246367E+03    0.56584E-02   -0.85289E-02  3029   0.447E+00    0.693E-01
DAV:   4    -0.166122173782E+03    0.20726E-02   -0.22627E-02  3072   0.314E+00    0.492E-01
DAV:   5    -0.166121988457E+03    0.18532E-03   -0.12746E-02  4016   0.197E+00    0.197E-01
DAV:   6    -0.166122273208E+03   -0.28475E-03   -0.74765E-03  3926   0.145E+00    0.120E-01
DAV:   7    -0.166122055402E+03    0.21781E-03   -0.39427E-03  3142   0.124E+00    0.106E-01
DAV:   8    -0.166121923061E+03    0.13234E-03   -0.11755E-03  3178   0.564E-01    0.370E-02
DAV:   9    -0.166121941211E+03   -0.18150E-04   -0.38489E-04  3503   0.164E-01    0.256E-02
DAV:  10    -0.166121945768E+03   -0.45572E-05   -0.15382E-04  3076   0.144E-01    0.132E-02
DAV:  11    -0.166121947066E+03   -0.12981E-05   -0.25280E-05  3690   0.492E-02    0.586E-03
DAV:  12    -0.166121949248E+03   -0.21816E-05   -0.84887E-06  2855   0.415E-02    0.496E-03
DAV:  13    -0.166121950808E+03   -0.15598E-05   -0.24687E-06  1813   0.214E-02    0.169E-03
DAV:  14    -0.166121952329E+03   -0.15210E-05   -0.84256E-07  1634   0.960E-03    0.136E-03
DAV:  15    -0.166121953127E+03   -0.79867E-06   -0.59103E-07  1541   0.829E-03
  28 F= -.16612195E+03 E0= -.16608547E+03  d E =-.155214E+00
       N       E                     dE             d eps       ncg     rms          rms(c)
DAV:   1    -0.166142751649E+03   -0.20799E-01   -0.32763E-01  2620   0.110E+00    0.144E-01
DAV:   2    -0.166144256906E+03   -0.15053E-02   -0.16635E-02  3869   0.435E-01    0.121E-01
DAV:   3    -0.166144140614E+03    0.11629E-03   -0.72827E-04  3092   0.406E-01    0.901E-02
DAV:   4    -0.166144073462E+03    0.67152E-04   -0.46494E-04  3202   0.348E-01    0.572E-02
DAV:   5    -0.166144039405E+03    0.34057E-04   -0.28715E-04  4120   0.242E-01    0.214E-02
DAV:   6    -0.166144046741E+03   -0.73358E-05   -0.13225E-04  3330   0.231E-01    0.216E-02
DAV:   7    -0.166144035717E+03    0.11024E-04   -0.49390E-05  3606   0.147E-01    0.819E-03
DAV:   8    -0.166144037010E+03   -0.12931E-05   -0.11766E-05  3573   0.523E-02    0.574E-03
DAV:   9    -0.166144038453E+03   -0.14424E-05   -0.48975E-06  2674   0.289E-02    0.256E-03
DAV:  10    -0.166144039556E+03   -0.11027E-05   -0.19257E-06  1749   0.124E-02    0.158E-03
DAV:  11    -0.166144040322E+03   -0.76648E-06   -0.62786E-07  1554   0.876E-03
  29 F= -.16614404E+03 E0= -.16610733E+03  d E =-.220872E-01
       N       E                     dE             d eps       ncg     rms          rms(c)
DAV:   1    -0.166158332639E+03   -0.14293E-01   -0.28872E+00  2615   0.324E+00    0.441E-01
DAV:   2    -0.166171879119E+03   -0.13546E-01   -0.15008E-01  3822   0.131E+00    0.369E-01
DAV:   3    -0.166170782598E+03    0.10965E-02   -0.68429E-03  3092   0.124E+00    0.274E-01
DAV:   4    -0.166170164482E+03    0.61812E-03   -0.44975E-03  3181   0.107E+00    0.173E-01
DAV:   5    -0.166169986429E+03    0.17805E-03   -0.32758E-03  3603   0.933E-01    0.934E-02
DAV:   6    -0.166169880049E+03    0.10638E-03   -0.17569E-03  3281   0.887E-01    0.559E-02
DAV:   7    -0.166169811203E+03    0.68845E-04   -0.41374E-04  4103   0.383E-01    0.236E-02
DAV:   8    -0.166169824299E+03   -0.13096E-04   -0.13905E-04  3762   0.138E-01    0.161E-02
DAV:   9    -0.166169836712E+03   -0.12413E-04   -0.53921E-05  3016   0.865E-02    0.847E-03
DAV:  10    -0.166169845447E+03   -0.87355E-05   -0.17926E-05  3034   0.424E-02    0.418E-03
DAV:  11    -0.166169852831E+03   -0.73832E-05   -0.51479E-06  2656   0.236E-02    0.280E-03
DAV:  12    -0.166169856969E+03   -0.41381E-05   -0.12036E-06  1698   0.147E-02    0.187E-03
DAV:  13    -0.166169862051E+03   -0.50824E-05   -0.61378E-07  1643   0.739E-03    0.923E-04
DAV:  14    -0.166169866558E+03   -0.45068E-05   -0.51716E-07  1642   0.555E-03    0.826E-04
DAV:  15    -0.166169868113E+03   -0.15548E-05   -0.28694E-07  1650   0.415E-03    0.585E-04
DAV:  16    -0.166169870942E+03   -0.28295E-05   -0.27836E-07  1571   0.351E-03    0.512E-04
DAV:  17    -0.166169872197E+03   -0.12544E-05   -0.16951E-07  1626   0.217E-03    0.305E-04
DAV:  18    -0.166169873132E+03   -0.93546E-06   -0.10341E-07  1560   0.206E-03
  30 F= -.16616987E+03 E0= -.16613247E+03  d E =-.479200E-01
       N       E                     dE             d eps       ncg     rms          rms(c)
DAV:   1    -0.166170027670E+03   -0.15547E-03   -0.25678E-02  2625   0.302E-01    0.393E-02
DAV:   2    -0.166170143981E+03   -0.11631E-03   -0.13110E-03  3882   0.120E-01    0.347E-02
DAV:   3    -0.166170135116E+03    0.88643E-05   -0.56552E-05  3074   0.108E-01    0.264E-02
DAV:   4    -0.166170130222E+03    0.48938E-05   -0.40041E-05  3106   0.976E-02    0.169E-02
DAV:   5    -0.166170130796E+03   -0.57404E-06   -0.40223E-05  3339   0.118E-01    0.121E-02
DAV:   6    -0.166170127195E+03    0.36011E-05   -0.20492E-05  2938   0.101E-01    0.439E-03
DAV:   7    -0.166170126928E+03    0.26706E-06   -0.23748E-06  1565   0.304E-02
  31 F= -.16617013E+03 E0= -.16613279E+03  d E =-.481738E-01
       N       E                     dE             d eps       ncg     rms          rms(c)
DAV:   1    -0.166175302935E+03   -0.51757E-02   -0.98333E-02  2630   0.672E-01    0.333E-02
DAV:   2    -0.166175522838E+03   -0.21990E-03   -0.23271E-03  3861   0.186E-01    0.344E-02
DAV:   3    -0.166175516502E+03    0.63360E-05   -0.14030E-04  2917   0.145E-01    0.267E-02
DAV:   4    -0.166175513381E+03    0.31207E-05   -0.36636E-05  3019   0.115E-01    0.210E-02
DAV:   5    -0.166175511058E+03    0.23227E-05   -0.14958E-05  3288   0.899E-02    0.148E-02
DAV:   6    -0.166175510289E+03    0.76962E-06   -0.16573E-05  3272   0.872E-02    0.613E-03
DAV:   7    -0.166175509399E+03    0.89000E-06   -0.66069E-06  2517   0.356E-02
  32 F= -.16617551E+03 E0= -.16613819E+03  d E =-.538247E-02
       N       E                     dE             d eps       ncg     rms          rms(c)
DAV:   1    -0.166188525129E+03   -0.13015E-01   -0.88526E-01  2630   0.202E+00    0.101E-01
DAV:   2    -0.166190549104E+03   -0.20240E-02   -0.21306E-02  3861   0.569E-01    0.105E-01
DAV:   3    -0.166190493468E+03    0.55636E-04   -0.13547E-03  2925   0.470E-01    0.797E-02
DAV:   4    -0.166190463461E+03    0.30007E-04   -0.34576E-04  3003   0.359E-01    0.628E-02
DAV:   5    -0.166190440673E+03    0.22787E-04   -0.14078E-04  4008   0.265E-01    0.442E-02
DAV:   6    -0.166190429984E+03    0.10689E-04   -0.13906E-04  3490   0.248E-01    0.182E-02
DAV:   7    -0.166190424741E+03    0.52434E-05   -0.66988E-05  4005   0.102E-01    0.795E-03
DAV:   8    -0.166190426936E+03   -0.21955E-05   -0.21553E-05  3234   0.388E-02    0.549E-03
DAV:   9    -0.166190427885E+03   -0.94826E-06   -0.45108E-06  2309   0.215E-02
  33 F= -.16619043E+03 E0= -.16615317E+03  d E =-.203010E-01
       N       E                     dE             d eps       ncg     rms          rms(c)
DAV:   1    -0.166207030591E+03   -0.16604E-01   -0.35412E+00  2630   0.404E+00    0.208E-01
DAV:   2    -0.166215329338E+03   -0.82987E-02   -0.87654E-02  3856   0.124E+00    0.231E-01
DAV:   3    -0.166215003416E+03    0.32592E-03   -0.62226E-03  2899   0.102E+00    0.161E-01
DAV:   4    -0.166214894171E+03    0.10925E-03   -0.14228E-03  3034   0.694E-01    0.128E-01
DAV:   5    -0.166214803266E+03    0.90904E-04   -0.65185E-04  3747   0.557E-01    0.945E-02
DAV:   6    -0.166214749196E+03    0.54070E-04   -0.64410E-04  3253   0.534E-01    0.408E-02
DAV:   7    -0.166214719545E+03    0.29651E-04   -0.34997E-04  4149   0.225E-01    0.144E-02
DAV:   8    -0.166214732439E+03   -0.12894E-04   -0.12062E-04  3130   0.787E-02    0.129E-02
DAV:   9    -0.166214734807E+03   -0.23672E-05   -0.20292E-05  2962   0.475E-02    0.739E-03
DAV:  10    -0.166214739833E+03   -0.50261E-05   -0.67721E-06  2821   0.255E-02    0.351E-03
DAV:  11    -0.166214744313E+03   -0.44807E-05   -0.28183E-06  1834   0.192E-02    0.232E-03
DAV:  12    -0.166214746147E+03   -0.18338E-05   -0.10824E-06  1687   0.133E-02    0.153E-03
DAV:  13    -0.166214748720E+03   -0.25730E-05   -0.52629E-07  1618   0.737E-03    0.550E-04
DAV:  14    -0.166214750825E+03   -0.21044E-05   -0.35987E-07  1602   0.379E-03    0.649E-04
DAV:  15    -0.166214752214E+03   -0.13896E-05   -0.21121E-07  1575   0.329E-03    0.493E-04
DAV:  16    -0.166214754144E+03   -0.19302E-05   -0.17647E-07  1578   0.257E-03    0.371E-04
DAV:  17    -0.166214755938E+03   -0.17934E-05   -0.17977E-07  1634   0.198E-03    0.413E-04
DAV:  18    -0.166214756157E+03   -0.21962E-06   -0.73688E-08  1588   0.163E-03
  34 F= -.16621476E+03 E0= -.16617762E+03  d E =-.446292E-01
       N       E                     dE             d eps       ncg     rms          rms(c)
DAV:   1    -0.166209007857E+03    0.57481E-02   -0.14174E+01  2630   0.810E+00    0.435E-01
DAV:   2    -0.166244281945E+03   -0.35274E-01   -0.37405E-01  3869   0.275E+00    0.501E-01
DAV:   3    -0.166242357177E+03    0.19248E-02   -0.26118E-02  2912   0.217E+00    0.325E-01
DAV:   4    -0.166241935480E+03    0.42170E-03   -0.59011E-03  3029   0.136E+00    0.262E-01
DAV:   5    -0.166241577797E+03    0.35768E-03   -0.29572E-03  3701   0.114E+00    0.198E-01
DAV:   6    -0.166241285960E+03    0.29184E-03   -0.28663E-03  3197   0.110E+00    0.854E-02
DAV:   7    -0.166241163409E+03    0.12255E-03   -0.16408E-03  4213   0.469E-01    0.274E-02
DAV:   8    -0.166241215601E+03   -0.52191E-04   -0.54516E-04  3106   0.167E-01    0.283E-02
DAV:   9    -0.166241219456E+03   -0.38554E-05   -0.94598E-05  2999   0.101E-01    0.162E-02
DAV:  10    -0.166241231705E+03   -0.12249E-04   -0.33308E-05  3544   0.456E-02    0.656E-03
DAV:  11    -0.166241241308E+03   -0.96038E-05   -0.91812E-06  2943   0.357E-02    0.432E-03
DAV:  12    -0.166241246468E+03   -0.51599E-05   -0.36606E-06  2407   0.265E-02    0.269E-03
DAV:  13    -0.166241251184E+03   -0.47162E-05   -0.12881E-06  1634   0.149E-02    0.109E-03
DAV:  14    -0.166241257504E+03   -0.63195E-05   -0.81347E-07  1698   0.680E-03    0.114E-03
DAV:  15    -0.166241261422E+03   -0.39181E-05   -0.48775E-07  1623   0.647E-03    0.829E-04
DAV:  16    -0.166241265248E+03   -0.38262E-05   -0.39382E-07  1626   0.382E-03    0.538E-04
DAV:  17    -0.166241268788E+03   -0.35393E-05   -0.33626E-07  1594   0.326E-03    0.646E-04
DAV:  18    -0.166241270032E+03   -0.12443E-05   -0.20068E-07  1623   0.299E-03    0.362E-04
DAV:  19    -0.166241272948E+03   -0.29159E-05   -0.30768E-07  1594   0.202E-03    0.315E-04
DAV:  20    -0.166241273500E+03   -0.55233E-06   -0.96830E-08  1623   0.195E-03
  35 F= -.16624127E+03 E0= -.16620435E+03  d E =-.711466E-01
       N       E                     dE             d eps       ncg     rms          rms(c)
DAV:   1    -0.166247748542E+03   -0.64756E-02   -0.14743E-01  2640   0.822E-01    0.468E-02
DAV:   2    -0.166248122805E+03   -0.37426E-03   -0.39543E-03  3874   0.237E-01    0.438E-02
DAV:   3    -0.166248118433E+03    0.43726E-05   -0.25619E-04  3002   0.244E-01    0.357E-02
DAV:   4    -0.166248107307E+03    0.11125E-04   -0.67545E-05  3024   0.176E-01    0.265E-02
DAV:   5    -0.166248101839E+03    0.54680E-05   -0.30985E-05  4022   0.106E-01    0.176E-02
DAV:   6    -0.166248099201E+03    0.26387E-05   -0.27827E-05  3224   0.925E-02    0.593E-03
DAV:   7    -0.166248099960E+03   -0.75932E-06   -0.10320E-05  3159   0.321E-02    0.362E-03
DAV:   8    -0.166248100107E+03   -0.14744E-06   -0.21506E-06  1570   0.190E-02
  36 F= -.16624810E+03 E0= -.16621121E+03  d E =-.682661E-02
       N       E                     dE             d eps       ncg     rms          rms(c)
DAV:   1    -0.166263093512E+03   -0.14994E-01   -0.13271E+00  2630   0.247E+00    0.141E-01
DAV:   2    -0.166266462298E+03   -0.33688E-02   -0.35681E-02  3864   0.746E-01    0.134E-01
DAV:   3    -0.166266409756E+03    0.52542E-04   -0.24514E-03  2931   0.781E-01    0.107E-01
DAV:   4    -0.166266312897E+03    0.96860E-04   -0.61830E-04  2988   0.529E-01    0.796E-02
DAV:   5    -0.166266274093E+03    0.38803E-04   -0.31513E-04  3558   0.345E-01    0.581E-02
DAV:   6    -0.166266240427E+03    0.33666E-04   -0.30048E-04  3234   0.289E-01    0.163E-02
DAV:   7    -0.166266246849E+03   -0.64216E-05   -0.10431E-04  3712   0.844E-02    0.109E-02
DAV:   8    -0.166266247707E+03   -0.85856E-06   -0.20982E-05  2988   0.560E-02    0.632E-03
DAV:   9    -0.166266248314E+03   -0.60681E-06   -0.47407E-06  2530   0.290E-02
  37 F= -.16626625E+03 E0= -.16622944E+03  d E =-.249748E-01
       N       E                     dE             d eps       ncg     rms          rms(c)
DAV:   1    -0.166279346087E+03   -0.13098E-01   -0.53086E+00  2630   0.493E+00    0.286E-01
DAV:   2    -0.166293034479E+03   -0.13688E-01   -0.14533E-01  3880   0.161E+00    0.282E-01
DAV:   3    -0.166292672826E+03    0.36165E-03   -0.10209E-02  2948   0.165E+00    0.215E-01
DAV:   4    -0.166292332748E+03    0.34008E-03   -0.25293E-03  2999   0.105E+00    0.162E-01
DAV:   5    -0.166292201271E+03    0.13148E-03   -0.14751E-03  3341   0.753E-01    0.125E-01
DAV:   6    -0.166292037400E+03    0.16387E-03   -0.13867E-03  3220   0.584E-01    0.316E-02
DAV:   7    -0.166292065900E+03   -0.28500E-04   -0.47551E-04  3728   0.159E-01    0.209E-02
DAV:   8    -0.166292070803E+03   -0.49031E-05   -0.97004E-05  3055   0.122E-01    0.143E-02
DAV:   9    -0.166292072372E+03   -0.15693E-05   -0.20182E-05  3034   0.624E-02    0.718E-03
DAV:  10    -0.166292079808E+03   -0.74352E-05   -0.10873E-05  3053   0.270E-02    0.353E-03
DAV:  11    -0.166292083554E+03   -0.37465E-05   -0.50978E-06  2583   0.302E-02    0.279E-03
DAV:  12    -0.166292085487E+03   -0.19328E-05   -0.90813E-07  1650   0.124E-02    0.182E-03
DAV:  13    -0.166292090096E+03   -0.46093E-05   -0.75485E-07  1674   0.971E-03    0.110E-03
DAV:  14    -0.166292092662E+03   -0.25653E-05   -0.37930E-07  1610   0.513E-03    0.804E-04
DAV:  15    -0.166292095050E+03   -0.23886E-05   -0.28361E-07  1594   0.490E-03    0.570E-04
DAV:  16    -0.166292097763E+03   -0.27128E-05   -0.23416E-07  1586   0.247E-03    0.479E-04
DAV:  17    -0.166292100195E+03   -0.24324E-05   -0.19444E-07  1610   0.254E-03    0.442E-04
DAV:  18    -0.166292101427E+03   -0.12318E-05   -0.11542E-07  1610   0.255E-03    0.285E-04
DAV:  19    -0.166292102684E+03   -0.12566E-05   -0.10934E-07  1562   0.155E-03    0.204E-04
DAV:  20    -0.166292103360E+03   -0.67643E-06   -0.65652E-08  1602   0.142E-03
  38 F= -.16629210E+03 E0= -.16625548E+03  d E =-.508299E-01
       N       E                     dE             d eps       ncg     rms          rms(c)
DAV:   1    -0.166249352075E+03    0.42751E-01   -0.21253E+01  2630   0.990E+00    0.587E-01
DAV:   2    -0.166306197747E+03   -0.56846E-01   -0.60676E-01  3864   0.349E+00    0.597E-01
DAV:   3    -0.166303955837E+03    0.22419E-02   -0.38648E-02  2955   0.330E+00    0.424E-01
DAV:   4    -0.166302799530E+03    0.11563E-02   -0.96690E-03  3041   0.205E+00    0.332E-01
DAV:   5    -0.166302255898E+03    0.54363E-03   -0.69974E-03  3274   0.163E+00    0.265E-01
DAV:   6    -0.166301459295E+03    0.79660E-03   -0.62482E-03  3260   0.119E+00    0.663E-02
DAV:   7    -0.166301575160E+03   -0.11587E-03   -0.21587E-03  3645   0.342E-01    0.421E-02
DAV:   8    -0.166301595403E+03   -0.20243E-04   -0.48484E-04  3018   0.276E-01    0.320E-02
DAV:   9    -0.166301593362E+03    0.20416E-05   -0.97634E-05  3058   0.138E-01    0.149E-02
DAV:  10    -0.166301612513E+03   -0.19151E-04   -0.50668E-05  3549   0.551E-02    0.783E-03
DAV:  11    -0.166301619853E+03   -0.73401E-05   -0.17924E-05  2938   0.582E-02    0.586E-03
DAV:  12    -0.166301624873E+03   -0.50202E-05   -0.40178E-06  2535   0.234E-02    0.373E-03
DAV:  13    -0.166301634921E+03   -0.10048E-04   -0.29291E-06  1922   0.213E-02    0.218E-03
DAV:  14    -0.166301640751E+03   -0.58294E-05   -0.91241E-07  1666   0.104E-02    0.170E-03
DAV:  15    -0.166301646442E+03   -0.56913E-05   -0.70023E-07  1634   0.901E-03    0.881E-04
DAV:  16    -0.166301653743E+03   -0.73012E-05   -0.64087E-07  1658   0.377E-03    0.841E-04
DAV:  17    -0.166301659124E+03   -0.53815E-05   -0.41370E-07  1626   0.516E-03    0.817E-04
DAV:  18    -0.166301663646E+03   -0.45211E-05   -0.41383E-07  1626   0.447E-03    0.437E-04
DAV:  19    -0.166301666239E+03   -0.25929E-05   -0.29693E-07  1642   0.241E-03    0.424E-04
DAV:  20    -0.166301667336E+03   -0.10970E-05   -0.14463E-07  1618   0.249E-03    0.316E-04
DAV:  21    -0.166301668681E+03   -0.13455E-05   -0.98978E-08  1594   0.166E-03    0.185E-04
DAV:  22    -0.166301669336E+03   -0.65519E-06   -0.53261E-08  1599   0.121E-03
  39 F= -.16630167E+03 E0= -.16626540E+03  d E =-.603958E-01
       N       E                     dE             d eps       ncg     rms          rms(c)
DAV:   1    -0.166299381270E+03    0.22874E-02   -0.23163E+00  2635   0.325E+00    0.189E-01
DAV:   2    -0.166305184271E+03   -0.58030E-02   -0.62341E-02  3885   0.935E-01    0.183E-01
DAV:   3    -0.166304993946E+03    0.19032E-03   -0.39002E-03  3034   0.879E-01    0.143E-01
DAV:   4    -0.166304860047E+03    0.13390E-03   -0.10954E-03  3011   0.690E-01    0.108E-01
DAV:   5    -0.166304760352E+03    0.99695E-04   -0.45730E-04  4082   0.475E-01    0.707E-02
DAV:   6    -0.166304716384E+03    0.43968E-04   -0.41952E-04  3208   0.426E-01    0.289E-02
DAV:   7    -0.166304719848E+03   -0.34637E-05   -0.20841E-04  3935   0.171E-01    0.123E-02
DAV:   8    -0.166304724331E+03   -0.44834E-05   -0.41360E-05  3064   0.634E-02    0.845E-03
DAV:   9    -0.166304727493E+03   -0.31618E-05   -0.14333E-05  2906   0.377E-02    0.553E-03
DAV:  10    -0.166304732564E+03   -0.50706E-05   -0.80547E-06  2725   0.334E-02    0.308E-03
DAV:  11    -0.166304734721E+03   -0.21574E-05   -0.16110E-06  1711   0.130E-02    0.211E-03
DAV:  12    -0.166304737094E+03   -0.23731E-05   -0.63008E-07  1632   0.880E-03    0.119E-03
DAV:  13    -0.166304738803E+03   -0.17088E-05   -0.35909E-07  1631   0.709E-03    0.768E-04
DAV:  14    -0.166304740752E+03   -0.19486E-05   -0.27974E-07  1600   0.325E-03    0.567E-04
DAV:  15    -0.166304742277E+03   -0.15256E-05   -0.17974E-07  1642   0.297E-03    0.503E-04
DAV:  16    -0.166304743826E+03   -0.15489E-05   -0.14840E-07  1581   0.262E-03    0.381E-04
DAV:  17    -0.166304744976E+03   -0.11497E-05   -0.11910E-07  1629   0.201E-03    0.373E-04
DAV:  18    -0.166304745579E+03   -0.60350E-06   -0.68571E-08  1591   0.148E-03
  40 F= -.16630475E+03 E0= -.16626836E+03  d E =-.634721E-01
       N       E                     dE             d eps       ncg     rms          rms(c)
DAV:   1    -0.166308711349E+03   -0.39664E-02   -0.11724E+00  2620   0.227E+00    0.121E-01
DAV:   2    -0.166311602248E+03   -0.28909E-02   -0.30032E-02  3859   0.641E-01    0.114E-01
DAV:   3    -0.166311540518E+03    0.61730E-04   -0.10912E-03  3021   0.418E-01    0.833E-02
DAV:   4    -0.166311512562E+03    0.27956E-04   -0.19733E-04  3067   0.251E-01    0.642E-02
DAV:   5    -0.166311497974E+03    0.14588E-04   -0.16246E-04  4149   0.131E-01    0.217E-02
DAV:   6    -0.166311497401E+03    0.57358E-06   -0.70808E-05  3387   0.105E-01    0.116E-02
DAV:   7    -0.166311497573E+03   -0.17224E-06   -0.18063E-05  3452   0.493E-02    0.669E-03
DAV:   8    -0.166311497519E+03    0.54133E-07   -0.40396E-06  2234   0.287E-02
  41 F= -.16631150E+03 E0= -.16627518E+03  d E =-.675194E-02
       N       E                     dE             d eps       ncg     rms          rms(c)
DAV:   1    -0.166299117035E+03    0.12381E-01   -0.10550E+01  2620   0.683E+00    0.381E-01
DAV:   2    -0.166326351604E+03   -0.27235E-01   -0.28486E-01  3895   0.218E+00    0.384E-01
DAV:   3    -0.166325473020E+03    0.87858E-03   -0.12175E-02  3034   0.155E+00    0.254E-01
DAV:   4    -0.166325201167E+03    0.27185E-03   -0.21934E-03  3036   0.745E-01    0.199E-01
DAV:   5    -0.166325006325E+03    0.19484E-03   -0.16262E-03  4102   0.446E-01    0.693E-02
DAV:   6    -0.166325033666E+03   -0.27341E-04   -0.99538E-04  3400   0.461E-01    0.482E-02
DAV:   7    -0.166325003424E+03    0.30242E-04   -0.47654E-04  3102   0.418E-01    0.318E-02
DAV:   8    -0.166324996137E+03    0.72870E-05   -0.13381E-04  3856   0.172E-01    0.153E-02
DAV:   9    -0.166324997962E+03   -0.18252E-05   -0.39250E-05  3372   0.544E-02    0.100E-02
DAV:  10    -0.166324999433E+03   -0.14710E-05   -0.14834E-05  2982   0.489E-02    0.490E-03
DAV:  11    -0.166325000685E+03   -0.12513E-05   -0.20372E-06  1655   0.195E-02    0.205E-03
DAV:  12    -0.166325002118E+03   -0.14334E-05   -0.12525E-06  1613   0.141E-02    0.177E-03
DAV:  13    -0.166325003108E+03   -0.98953E-06   -0.73693E-07  1594   0.843E-03
  42 F= -.16632500E+03 E0= -.16628889E+03  d E =-.202575E-01
       N       E                     dE             d eps       ncg     rms          rms(c)
DAV:   1    -0.166210559980E+03    0.11444E+00   -0.42212E+01  2620   0.138E+01    0.800E-01
DAV:   2    -0.166328017281E+03   -0.11746E+00   -0.12320E+00  3900   0.474E+00    0.810E-01
DAV:   3    -0.166323206147E+03    0.48111E-02   -0.49080E-02  3060   0.332E+00    0.515E-01
DAV:   4    -0.166322109762E+03    0.10964E-02   -0.10145E-02  3020   0.150E+00    0.411E-01
DAV:   5    -0.166320831140E+03    0.12786E-02   -0.77140E-03  3958   0.107E+00    0.169E-01
DAV:   6    -0.166320926496E+03   -0.95356E-04   -0.44529E-03  3164   0.121E+00    0.988E-02
DAV:   7    -0.166320936262E+03   -0.97661E-05   -0.17570E-03  3928   0.735E-01    0.556E-02
DAV:   8    -0.166320879221E+03    0.57041E-04   -0.64455E-04  3992   0.387E-01    0.358E-02
DAV:   9    -0.166320878638E+03    0.58347E-06   -0.16533E-04  3053   0.161E-01    0.211E-02
DAV:  10    -0.166320884315E+03   -0.56768E-05   -0.74796E-05  2963   0.921E-02    0.107E-02
DAV:  11    -0.166320889545E+03   -0.52302E-05   -0.17742E-05  3076   0.443E-02    0.444E-03
DAV:  12    -0.166320893493E+03   -0.39479E-05   -0.50761E-06  2709   0.300E-02    0.349E-03
DAV:  13    -0.166320896756E+03   -0.32632E-05   -0.17295E-06  1650   0.170E-02    0.136E-03
DAV:  14    -0.166320901325E+03   -0.45686E-05   -0.97102E-07  1704   0.638E-03    0.112E-03
DAV:  15    -0.166320902791E+03   -0.14664E-05   -0.41661E-07  1647   0.630E-03    0.782E-04
DAV:  16    -0.166320905403E+03   -0.26116E-05   -0.29569E-07  1576   0.371E-03    0.526E-04
DAV:  17    -0.166320907775E+03   -0.23722E-05   -0.23346E-07  1618   0.291E-03    0.484E-04
DAV:  18    -0.166320908808E+03   -0.10337E-05   -0.16193E-07  1591   0.286E-03    0.373E-04
DAV:  19    -0.166320910923E+03   -0.21145E-05   -0.19441E-07  1602   0.214E-03    0.358E-04
DAV:  20    -0.166320911718E+03   -0.79535E-06   -0.10012E-07  1626   0.213E-03
  43 F= -.16632091E+03 E0= -.16628512E+03  d E =-.161661E-01
       N       E                     dE             d eps       ncg     rms          rms(c)
DAV:   1    -0.166289815639E+03    0.31095E-01   -0.15407E+01  2620   0.827E+00    0.452E-01
DAV:   2    -0.166330424934E+03   -0.40609E-01   -0.42118E-01  3876   0.249E+00    0.450E-01
DAV:   3    -0.166329297176E+03    0.11278E-02   -0.16117E-02  2996   0.181E+00    0.310E-01
DAV:   4    -0.166328938324E+03    0.35885E-03   -0.32172E-03  3064   0.116E+00    0.253E-01
DAV:   5    -0.166329535400E+03   -0.59708E-03   -0.53155E-03  3192   0.161E+00    0.217E-01
DAV:   6    -0.166328361254E+03    0.11741E-02   -0.44764E-03  3814   0.137E+00    0.507E-02
DAV:   7    -0.166328463574E+03   -0.10232E-03   -0.14204E-03  4072   0.300E-01    0.337E-02
DAV:   8    -0.166328463810E+03   -0.23562E-06   -0.23198E-04  3116   0.181E-01    0.240E-02
DAV:   9    -0.166328459545E+03    0.42650E-05   -0.72406E-05  3055   0.815E-02    0.127E-02
DAV:  10    -0.166328459119E+03    0.42625E-06   -0.25391E-05  3893   0.391E-02    0.538E-03
DAV:  11    -0.166328459817E+03   -0.69861E-06   -0.82592E-06  2959   0.311E-02
  44 F= -.16632846E+03 E0= -.16629248E+03  d E =-.237142E-01
       N       E                     dE             d eps       ncg     rms          rms(c)
DAV:   1    -0.166333925033E+03   -0.54659E-02   -0.10705E+00  2620   0.194E+00    0.154E-01
DAV:   2    -0.166337627640E+03   -0.37026E-02   -0.38866E-02  3874   0.532E-01    0.142E-01
DAV:   3    -0.166337500336E+03    0.12730E-03   -0.95047E-04  3034   0.289E-01    0.111E-01
DAV:   4    -0.166337506785E+03   -0.64488E-05   -0.50183E-04  3099   0.434E-01    0.937E-02
DAV:   5    -0.166337467691E+03    0.39094E-04   -0.62920E-04  3137   0.566E-01    0.615E-02
DAV:   6    -0.166337397985E+03    0.69706E-04   -0.33744E-04  3537   0.451E-01    0.179E-02
DAV:   7    -0.166337400683E+03   -0.26981E-05   -0.10568E-04  4706   0.115E-01    0.102E-02
DAV:   8    -0.166337402290E+03   -0.16070E-05   -0.20354E-05  3356   0.489E-02    0.720E-03
DAV:   9    -0.166337403667E+03   -0.13761E-05   -0.78246E-06  2874   0.317E-02    0.381E-03
DAV:  10    -0.166337405056E+03   -0.13897E-05   -0.14428E-06  1616   0.205E-02    0.180E-03
DAV:  11    -0.166337406045E+03   -0.98883E-06   -0.10249E-06  1610   0.102E-02
  45 F= -.16633741E+03 E0= -.16630148E+03  d E =-.894623E-02
       N       E                     dE             d eps       ncg     rms          rms(c)
DAV:   1    -0.166325068499E+03    0.12337E-01   -0.66188E+00  2610   0.483E+00    0.387E-01
DAV:   2    -0.166348168832E+03   -0.23100E-01   -0.24308E-01  3874   0.138E+00    0.361E-01
DAV:   3    -0.166347357126E+03    0.81171E-03   -0.66286E-03  3026   0.772E-01    0.280E-01
DAV:   4    -0.166347248068E+03    0.10906E-03   -0.28122E-03  3083   0.964E-01    0.230E-01
DAV:   5    -0.166347190886E+03    0.57182E-04   -0.38598E-03  3105   0.138E+00    0.162E-01
DAV:   6    -0.166346682588E+03    0.50830E-03   -0.23893E-03  3383   0.122E+00    0.472E-02
DAV:   7    -0.166346682931E+03   -0.34249E-06   -0.73538E-04  4708   0.333E-01    0.284E-02
DAV:   8    -0.166346689373E+03   -0.64427E-05   -0.16836E-04  3468   0.136E-01    0.185E-02
DAV:   9    -0.166346694717E+03   -0.53440E-05   -0.53631E-05  2978   0.789E-02    0.111E-02
DAV:  10    -0.166346700306E+03   -0.55889E-05   -0.14943E-05  3245   0.587E-02    0.444E-03
DAV:  11    -0.166346704295E+03   -0.39885E-05   -0.50575E-06  2522   0.253E-02    0.232E-03
DAV:  12    -0.166346707251E+03   -0.29564E-05   -0.20915E-06  1680   0.169E-02    0.220E-03
DAV:  13    -0.166346708872E+03   -0.16209E-05   -0.89861E-07  1626   0.109E-02    0.970E-04
DAV:  14    -0.166346710612E+03   -0.17404E-05   -0.40427E-07  1584   0.438E-03    0.710E-04
DAV:  15    -0.166346712361E+03   -0.17487E-05   -0.34374E-07  1573   0.463E-03    0.768E-04
DAV:  16    -0.166346713562E+03   -0.12005E-05   -0.21737E-07  1560   0.359E-03    0.482E-04
DAV:  17    -0.166346714243E+03   -0.68120E-06   -0.14802E-07  1546   0.194E-03
  46 F= -.16634671E+03 E0= -.16631091E+03  d E =-.182544E-01
       N       E                     dE             d eps       ncg     rms          rms(c)
DAV:   1    -0.166350776580E+03   -0.40630E-02   -0.25608E-01  2620   0.912E-01    0.718E-02
DAV:   2    -0.166351535798E+03   -0.75922E-03   -0.78874E-03  3840   0.268E-01    0.595E-02
DAV:   3    -0.166351525772E+03    0.10025E-04   -0.27424E-04  3008   0.230E-01    0.450E-02
DAV:   4    -0.166351527963E+03   -0.21901E-05   -0.10771E-04  3038   0.241E-01    0.382E-02
DAV:   5    -0.166351534011E+03   -0.60481E-05   -0.12240E-04  3276   0.236E-01    0.256E-02
DAV:   6    -0.166351517658E+03    0.16352E-04   -0.54475E-05  3724   0.146E-01    0.643E-03
DAV:   7    -0.166351519668E+03   -0.20096E-05   -0.18025E-05  3932   0.298E-02    0.443E-03
DAV:   8    -0.166351519759E+03   -0.91095E-07   -0.30014E-06  2087   0.231E-02
  47 F= -.16635152E+03 E0= -.16631576E+03  d E =-.480552E-02
       N       E                     dE             d eps       ncg     rms          rms(c)
DAV:   1    -0.166358886522E+03   -0.73669E-02   -0.23033E+00  2610   0.274E+00    0.217E-01
DAV:   2    -0.166365823580E+03   -0.69371E-02   -0.72201E-02  3846   0.830E-01    0.182E-01
DAV:   3    -0.166365706756E+03    0.11682E-03   -0.24975E-03  2960   0.731E-01    0.137E-01
DAV:   4    -0.166365711201E+03   -0.44450E-05   -0.99518E-04  3017   0.732E-01    0.115E-01
DAV:   5    -0.166365768714E+03   -0.57513E-04   -0.10747E-03  3348   0.688E-01    0.753E-02
DAV:   6    -0.166365627663E+03    0.14105E-03   -0.48872E-04  3876   0.427E-01    0.191E-02
DAV:   7    -0.166365644467E+03   -0.16804E-04   -0.16731E-04  3940   0.931E-02    0.135E-02
DAV:   8    -0.166365644949E+03   -0.48266E-06   -0.29684E-05  3004   0.722E-02    0.906E-03
DAV:   9    -0.166365644056E+03    0.89291E-06   -0.69522E-06  2892   0.333E-02
  48 F= -.16636564E+03 E0= -.16633001E+03  d E =-.189298E-01
       N       E                     dE             d eps       ncg     rms          rms(c)
DAV:   1    -0.166364696359E+03    0.94859E-03   -0.91948E+00  2610   0.548E+00    0.441E-01
DAV:   2    -0.166393235174E+03   -0.28539E-01   -0.29684E-01  3864   0.178E+00    0.375E-01
DAV:   3    -0.166392832202E+03    0.40297E-03   -0.11182E-02  2965   0.162E+00    0.279E-01
DAV:   4    -0.166392706864E+03    0.12534E-03   -0.41091E-03  3035   0.149E+00    0.232E-01
DAV:   5    -0.166392732594E+03   -0.25730E-04   -0.41403E-03  3409   0.131E+00    0.147E-01
DAV:   6    -0.166392248604E+03    0.48399E-03   -0.19944E-03  3913   0.806E-01    0.369E-02
DAV:   7    -0.166392322733E+03   -0.74129E-04   -0.72060E-04  3860   0.198E-01    0.293E-02
DAV:   8    -0.166392324233E+03   -0.15004E-05   -0.14731E-04  2980   0.159E-01    0.181E-02
DAV:   9    -0.166392320687E+03    0.35463E-05   -0.27094E-05  3076   0.646E-02    0.832E-03
DAV:  10    -0.166392320707E+03   -0.20431E-07   -0.92782E-06  3058   0.339E-02
  49 F= -.16639232E+03 E0= -.16635690E+03  d E =-.456065E-01
       N       E                     dE             d eps       ncg     rms          rms(c)
DAV:   1    -0.166320300330E+03    0.72020E-01   -0.36600E+01  2610   0.110E+01    0.929E-01
DAV:   2    -0.166444478556E+03   -0.12418E+00   -0.12916E+00  3885   0.392E+00    0.799E-01
DAV:   3    -0.166442320609E+03    0.21579E-02   -0.51574E-02  2970   0.360E+00    0.576E-01
DAV:   4    -0.166441395929E+03    0.92468E-03   -0.17654E-02  3035   0.306E+00    0.483E-01
DAV:   5    -0.166440584807E+03    0.81112E-03   -0.15575E-02  3596   0.249E+00    0.287E-01
DAV:   6    -0.166438884881E+03    0.16999E-02   -0.79903E-03  3897   0.156E+00    0.735E-02
DAV:   7    -0.166439207397E+03   -0.32252E-03   -0.29801E-03  3636   0.458E-01    0.635E-02
DAV:   8    -0.166439214804E+03   -0.74075E-05   -0.77700E-04  2975   0.360E-01    0.371E-02
DAV:   9    -0.166439201905E+03    0.12899E-04   -0.12818E-04  3098   0.137E-01    0.177E-02
DAV:  10    -0.166439201556E+03    0.34930E-06   -0.42854E-05  3330   0.792E-02    0.101E-02
DAV:  11    -0.166439202427E+03   -0.87143E-06   -0.24319E-05  3061   0.646E-02    0.517E-03
DAV:  12    -0.166439203008E+03   -0.58056E-06   -0.62405E-06  2772   0.260E-02
  50 F= -.16643920E+03 E0= -.16640406E+03  d E =-.924888E-01
       N       E                     dE             d eps       ncg     rms          rms(c)
DAV:   1    -0.165927807739E+03    0.51139E+00   -0.14446E+02  2610   0.220E+01    0.215E+00
DAV:   2    -0.166532317846E+03   -0.60451E+00   -0.63020E+00  3887   0.841E+00    0.175E+00
DAV:   3    -0.166519755011E+03    0.12563E-01   -0.25138E-01  3004   0.775E+00    0.123E+00
DAV:   4    -0.166514194846E+03    0.55602E-02   -0.82845E-02  3048   0.655E+00    0.105E+00
DAV:   5    -0.166505939291E+03    0.82556E-02   -0.52906E-02  3588   0.470E+00    0.575E-01
DAV:   6    -0.166501822512E+03    0.41168E-02   -0.30676E-02  3860   0.318E+00    0.180E-01
DAV:   7    -0.166502773274E+03   -0.95076E-03   -0.11104E-02  3466   0.106E+00    0.111E-01
DAV:   8    -0.166502876200E+03   -0.10293E-03   -0.33311E-03  3004   0.684E-01    0.803E-02
DAV:   9    -0.166502854260E+03    0.21940E-04   -0.80907E-04  3031   0.352E-01    0.419E-02
DAV:  10    -0.166502843601E+03    0.10658E-04   -0.22847E-04  3090   0.195E-01    0.196E-02
DAV:  11    -0.166502849027E+03   -0.54260E-05   -0.10217E-04  3200   0.111E-01    0.134E-02
DAV:  12    -0.166502850909E+03   -0.18817E-05   -0.39991E-05  3058   0.804E-02    0.710E-03
DAV:  13    -0.166502851782E+03   -0.87300E-06   -0.81176E-06  2834   0.371E-02
  51 F= -.16650285E+03 E0= -.16646771E+03  d E =-.156138E+00
       N       E                     dE             d eps       ncg     rms          rms(c)
DAV:   1    -0.163075137795E+03    0.34277E+01   -0.55219E+02  2610   0.441E+01    0.629E+00
DAV:   2    -0.166686441776E+03   -0.36113E+01   -0.37714E+01  3879   0.178E+01    0.442E+00
DAV:   3    -0.166577135523E+03    0.10931E+00   -0.15562E+00  3108   0.167E+01    0.293E+00
DAV:   4    -0.166541911706E+03    0.35224E-01   -0.47593E-01  3106   0.154E+01    0.257E+00
DAV:   5    -0.166486037375E+03    0.55874E-01   -0.17888E-01  3368   0.929E+00    0.155E+00
DAV:   6    -0.166474869846E+03    0.11168E-01   -0.11480E-01  3664   0.609E+00    0.767E-01
DAV:   7    -0.166474937261E+03   -0.67415E-04   -0.55554E-02  3573   0.303E+00    0.204E-01
DAV:   8    -0.166476298667E+03   -0.13614E-02   -0.17759E-02  3108   0.133E+00    0.179E-01
DAV:   9    -0.166476466669E+03   -0.16800E-03   -0.60163E-03  2988   0.895E-01    0.958E-02
DAV:  10    -0.166476358727E+03    0.10794E-03   -0.11175E-03  3018   0.500E-01    0.467E-02
DAV:  11    -0.166476391828E+03   -0.33101E-04   -0.53110E-04  3090   0.210E-01    0.334E-02
[...]
DAV:   5    -0.167434727215E+03    0.14495E-05   -0.10231E-05  3244   0.391E-02    0.399E-03
DAV:   6    -0.167434727734E+03   -0.51892E-06   -0.34770E-06  2060   0.291E-02
 278 F= -.16743473E+03 E0= -.16739959E+03  d E =-.540200E-03
       N       E                     dE             d eps       ncg     rms          rms(c)
DAV:   1    -0.167434259806E+03    0.46741E-03   -0.67512E-01  2610   0.158E+00    0.107E-01
DAV:   2    -0.167436115810E+03   -0.18560E-02   -0.19196E-02  3814   0.435E-01    0.899E-02
DAV:   3    -0.167436080890E+03    0.34920E-04   -0.50991E-04  3132   0.262E-01    0.681E-02
DAV:   4    -0.167436073277E+03    0.76127E-05   -0.14297E-04  3066   0.252E-01    0.540E-02
DAV:   5    -0.167436067151E+03    0.61262E-05   -0.84982E-05  3534   0.204E-01    0.203E-02
DAV:   6    -0.167436066863E+03    0.28743E-06   -0.70009E-05  3460   0.224E-01    0.148E-02
DAV:   7    -0.167436062100E+03    0.47632E-05   -0.25410E-05  4060   0.108E-01    0.538E-03
DAV:   8    -0.167436062984E+03   -0.88353E-06   -0.11072E-05  3220   0.266E-02    0.458E-03
DAV:   9    -0.167436063045E+03   -0.61176E-07   -0.29399E-06  1996   0.184E-02
 279 F= -.16743606E+03 E0= -.16740096E+03  d E =-.187551E-02
       N       E                     dE             d eps       ncg     rms          rms(c)
DAV:   1    -0.167430259622E+03    0.58034E-02   -0.27005E+00  2610   0.315E+00    0.214E-01
DAV:   2    -0.167437717977E+03   -0.74584E-02   -0.77165E-02  3819   0.871E-01    0.183E-01
DAV:   3    -0.167437561976E+03    0.15600E-03   -0.20183E-03  3140   0.510E-01    0.137E-01
DAV:   4    -0.167437526256E+03    0.35720E-04   -0.58133E-04  3095   0.494E-01    0.111E-01
DAV:   5    -0.167437472151E+03    0.54106E-04   -0.36016E-04  4149   0.310E-01    0.317E-02
DAV:   6    -0.167437500131E+03   -0.27980E-04   -0.20982E-04  3305   0.349E-01    0.307E-02
DAV:   7    -0.167437477469E+03    0.22662E-04   -0.89566E-05  3852   0.239E-01    0.118E-02
DAV:   8    -0.167437479617E+03   -0.21487E-05   -0.38667E-05  4082   0.667E-02    0.899E-03
DAV:   9    -0.167437479703E+03   -0.86147E-07   -0.10526E-05  2946   0.313E-02    0.430E-03
DAV:  10    -0.167437479858E+03   -0.15454E-06   -0.24251E-06  1703   0.182E-02
 280 F= -.16743748E+03 E0= -.16740245E+03  d E =-.329232E-02
       N       E                     dE             d eps       ncg     rms          rms(c)
DAV:   1    -0.167436542396E+03    0.93731E-03   -0.39206E-01  2610   0.120E+00    0.814E-02
DAV:   2    -0.167437619215E+03   -0.10768E-02   -0.11142E-02  3822   0.329E-01    0.687E-02
DAV:   3    -0.167437597164E+03    0.22051E-04   -0.28276E-04  3140   0.192E-01    0.520E-02
DAV:   4    -0.167437593276E+03    0.38884E-05   -0.83377E-05  3079   0.189E-01    0.418E-02
DAV:   5    -0.167437585917E+03    0.73589E-05   -0.51414E-05  4190   0.108E-01    0.108E-02
DAV:   6    -0.167437588829E+03   -0.29126E-05   -0.24549E-05  3564   0.979E-02    0.943E-03
DAV:   7    -0.167437587650E+03    0.11792E-05   -0.96745E-06  3172   0.717E-02    0.455E-03
DAV:   8    -0.167437587591E+03    0.59255E-07   -0.20546E-06  1620   0.285E-02
 281 F= -.16743759E+03 E0= -.16740258E+03  d E =-.340006E-02
       N       E                     dE             d eps       ncg     rms          rms(c)
DAV:   1    -0.167437911240E+03   -0.32359E-03   -0.56141E-02  2610   0.432E-01    0.374E-02
DAV:   2    -0.167438073272E+03   -0.16203E-03   -0.16977E-03  3877   0.129E-01    0.287E-02
DAV:   3    -0.167438069866E+03    0.34058E-05   -0.64045E-05  3031   0.104E-01    0.209E-02
DAV:   4    -0.167438069048E+03    0.81793E-06   -0.16143E-05  3117   0.898E-02    0.156E-02
DAV:   5    -0.167438070884E+03   -0.18353E-05   -0.10772E-05  2888   0.938E-02    0.845E-03
DAV:   6    -0.167438068298E+03    0.25857E-05   -0.63661E-06  1995   0.774E-02    0.365E-03
DAV:   7    -0.167438068369E+03   -0.71130E-07   -0.28862E-06  2148   0.260E-02
 282 F= -.16743807E+03 E0= -.16740308E+03  d E =-.480778E-03
       N       E                     dE             d eps       ncg     rms          rms(c)
DAV:   1    -0.167437810614E+03    0.25768E-03   -0.50402E-01  2610   0.129E+00    0.111E-01
DAV:   2    -0.167439234884E+03   -0.14243E-02   -0.14923E-02  3882   0.369E-01    0.837E-02
DAV:   3    -0.167439207303E+03    0.27582E-04   -0.54432E-04  3036   0.283E-01    0.622E-02
DAV:   4    -0.167439199141E+03    0.81619E-05   -0.14811E-04  3084   0.246E-01    0.459E-02
DAV:   5    -0.167439195673E+03    0.34680E-05   -0.68286E-05  3436   0.138E-01    0.131E-02
DAV:   6    -0.167439198714E+03   -0.30416E-05   -0.36825E-05  4100   0.795E-02    0.912E-03
DAV:   7    -0.167439198577E+03    0.13749E-06   -0.14681E-05  3036   0.803E-02    0.683E-03
DAV:   8    -0.167439197976E+03    0.60111E-06   -0.37058E-06  2148   0.414E-02
 283 F= -.16743920E+03 E0= -.16740425E+03  d E =-.161038E-02
       N       E                     dE             d eps       ncg     rms          rms(c)
DAV:   1    -0.167434461904E+03    0.47367E-02   -0.20160E+00  2610   0.259E+00    0.221E-01
DAV:   2    -0.167440171689E+03   -0.57098E-02   -0.59813E-02  3867   0.743E-01    0.168E-01
DAV:   3    -0.167440056497E+03    0.11519E-03   -0.21658E-03  3034   0.589E-01    0.125E-01
DAV:   4    -0.167440023650E+03    0.32846E-04   -0.61458E-04  3082   0.524E-01    0.931E-02
DAV:   5    -0.167440024137E+03   -0.48656E-06   -0.30140E-04  3221   0.378E-01    0.379E-02
DAV:   6    -0.167440032005E+03   -0.78682E-05   -0.21105E-04  3219   0.374E-01    0.234E-02
DAV:   7    -0.167440022147E+03    0.98585E-05   -0.84652E-05  4432   0.201E-01    0.117E-02
DAV:   8    -0.167440022428E+03   -0.28190E-06   -0.30206E-05  3908   0.629E-02    0.791E-03
DAV:   9    -0.167440022844E+03   -0.41543E-06   -0.11170E-05  2988   0.306E-02    0.493E-03
DAV:  10    -0.167440023027E+03   -0.18353E-06   -0.27196E-06  1876   0.207E-02
 284 F= -.16744002E+03 E0= -.16740517E+03  d E =-.243544E-02
       N       E                     dE             d eps       ncg     rms          rms(c)
DAV:   1    -0.167440299585E+03   -0.27674E-03   -0.36258E-02  2615   0.345E-01    0.299E-02
DAV:   2    -0.167440403529E+03   -0.10394E-03   -0.10854E-03  3908   0.114E-01    0.240E-02
DAV:   3    -0.167440400988E+03    0.25404E-05   -0.43430E-05  2996   0.950E-02    0.179E-02
DAV:   4    -0.167440400369E+03    0.61980E-06   -0.11284E-05  3028   0.622E-02    0.130E-02
DAV:   5    -0.167440400562E+03   -0.19377E-06   -0.50976E-06  2644   0.349E-02
 285 F= -.16744040E+03 E0= -.16740556E+03  d E =-.377535E-03
       N       E                     dE             d eps       ncg     rms          rms(c)
DAV:   1    -0.167440493227E+03   -0.92859E-04   -0.32565E-01  2610   0.104E+00    0.899E-02
DAV:   2    -0.167441418977E+03   -0.92575E-03   -0.96991E-03  3853   0.330E-01    0.703E-02
DAV:   3    -0.167441397052E+03    0.21926E-04   -0.38352E-04  2980   0.272E-01    0.537E-02
DAV:   4    -0.167441391262E+03    0.57900E-05   -0.10134E-04  3036   0.196E-01    0.389E-02
DAV:   5    -0.167441400564E+03   -0.93020E-05   -0.55794E-05  3323   0.167E-01    0.179E-02
DAV:   6    -0.167441399071E+03    0.14922E-05   -0.41980E-05  3167   0.191E-01    0.112E-02
DAV:   7    -0.167441396210E+03    0.28612E-05   -0.15981E-05  3719   0.860E-02    0.378E-03
DAV:   8    -0.167441396738E+03   -0.52783E-06   -0.66087E-06  2732   0.202E-02
 286 F= -.16744140E+03 E0= -.16740658E+03  d E =-.137371E-02
       N       E                     dE             d eps       ncg     rms          rms(c)
DAV:   1    -0.167439153312E+03    0.22429E-02   -0.13030E+00  2610   0.207E+00    0.179E-01
DAV:   2    -0.167442865291E+03   -0.37120E-02   -0.38909E-02  3848   0.665E-01    0.141E-01
DAV:   3    -0.167442769124E+03    0.96167E-04   -0.15081E-03  2980   0.539E-01    0.107E-01
DAV:   4    -0.167442744410E+03    0.24714E-04   -0.40003E-04  3028   0.372E-01    0.777E-02
DAV:   5    -0.167442765051E+03   -0.20642E-04   -0.19198E-04  3626   0.232E-01    0.243E-02
DAV:   6    -0.167442785775E+03   -0.20724E-04   -0.13594E-04  3321   0.297E-01    0.238E-02
DAV:   7    -0.167442769619E+03    0.16157E-04   -0.53048E-05  3599   0.190E-01    0.761E-03
DAV:   8    -0.167442771468E+03   -0.18497E-05   -0.22730E-05  3660   0.427E-02    0.631E-03
DAV:   9    -0.167442771613E+03   -0.14482E-06   -0.60809E-06  2679   0.261E-02
 287 F= -.16744277E+03 E0= -.16740800E+03  d E =-.274859E-02
       N       E                     dE             d eps       ncg     rms          rms(c)
DAV:   1    -0.167428479235E+03    0.14292E-01   -0.52069E+00  2610   0.414E+00    0.358E-01
DAV:   2    -0.167443512376E+03   -0.15033E-01   -0.15737E-01  3835   0.132E+00    0.285E-01
DAV:   3    -0.167443173376E+03    0.33900E-03   -0.61351E-03  2988   0.108E+00    0.214E-01
DAV:   4    -0.167443039692E+03    0.13368E-03   -0.16374E-03  3020   0.746E-01    0.156E-01
DAV:   5    -0.167443016197E+03    0.23494E-04   -0.79911E-04  3948   0.387E-01    0.409E-02
DAV:   6    -0.167443089943E+03   -0.73745E-04   -0.38410E-04  3495   0.357E-01    0.365E-02
DAV:   7    -0.167443069598E+03    0.20345E-04   -0.15688E-04  3342   0.283E-01    0.167E-02
DAV:   8    -0.167443070705E+03   -0.11072E-05   -0.45907E-05  3487   0.104E-01    0.123E-02
DAV:   9    -0.167443070959E+03   -0.25472E-06   -0.21474E-05  2999   0.511E-02    0.489E-03
DAV:  10    -0.167443071787E+03   -0.82777E-06   -0.62865E-06  2972   0.243E-02
 288 F= -.16744307E+03 E0= -.16740841E+03  d E =-.304876E-02
       N       E                     dE             d eps       ncg     rms          rms(c)
DAV:   1    -0.167441101838E+03    0.19691E-02   -0.81791E-01  2610   0.164E+00    0.143E-01
DAV:   2    -0.167443400634E+03   -0.22988E-02   -0.24129E-02  3879   0.545E-01    0.114E-01
DAV:   3    -0.167443338095E+03    0.62540E-04   -0.97263E-04  2967   0.458E-01    0.847E-02
DAV:   4    -0.167443323175E+03    0.14919E-04   -0.24617E-04  3018   0.310E-01    0.618E-02
DAV:   5    -0.167443358697E+03   -0.35522E-04   -0.14722E-04  3187   0.291E-01    0.311E-02
DAV:   6    -0.167443345007E+03    0.13690E-04   -0.11639E-04  3444   0.305E-01    0.144E-02
DAV:   7    -0.167443342720E+03    0.22870E-05   -0.43826E-05  4331   0.121E-01    0.663E-03
DAV:   8    -0.167443343574E+03   -0.85402E-06   -0.14514E-05  3220   0.363E-02    0.505E-03
DAV:   9    -0.167443343572E+03    0.24447E-08   -0.44351E-06  2324   0.210E-02
 289 F= -.16744334E+03 E0= -.16740864E+03  d E =-.332054E-02
       N       E                     dE             d eps       ncg     rms          rms(c)
DAV:   1    -0.167443655624E+03   -0.31205E-03   -0.28070E-02  2620   0.315E-01    0.235E-02
DAV:   2    -0.167443734006E+03   -0.78382E-04   -0.81594E-04  3892   0.101E-01    0.206E-02
DAV:   3    -0.167443731633E+03    0.23722E-05   -0.28161E-05  3004   0.771E-02    0.154E-02
DAV:   4    -0.167443731018E+03    0.61590E-06   -0.64045E-06  2948   0.476E-02
 290 F= -.16744373E+03 E0= -.16740904E+03  d E =-.387446E-03
       N       E                     dE             d eps       ncg     rms          rms(c)
DAV:   1    -0.167444057463E+03   -0.32583E-03   -0.25287E-01  2610   0.943E-01    0.706E-02
DAV:   2    -0.167444759671E+03   -0.70221E-03   -0.73162E-03  3892   0.255E-01    0.585E-02
DAV:   3    -0.167444744613E+03    0.15057E-04   -0.20733E-04  3060   0.164E-01    0.456E-02
DAV:   4    -0.167444743030E+03    0.15836E-05   -0.62673E-05  3076   0.175E-01    0.356E-02
DAV:   5    -0.167444741930E+03    0.10996E-05   -0.39900E-05  3298   0.162E-01    0.165E-02
DAV:   6    -0.167444740686E+03    0.12438E-05   -0.30553E-05  3168   0.161E-01    0.936E-03
DAV:   7    -0.167444738789E+03    0.18977E-05   -0.12093E-05  3658   0.729E-02    0.432E-03
DAV:   8    -0.167444738916E+03   -0.12701E-06   -0.40097E-06  2172   0.201E-02
 291 F= -.16744474E+03 E0= -.16741009E+03  d E =-.139534E-02
       N       E                     dE             d eps       ncg     rms          rms(c)
DAV:   1    -0.167443337300E+03    0.14015E-02   -0.10144E+00  2610   0.189E+00    0.142E-01
DAV:   2    -0.167446184999E+03   -0.28477E-02   -0.29621E-02  3877   0.575E-01    0.121E-01
DAV:   3    -0.167446113666E+03    0.71333E-04   -0.10278E-03  2991   0.439E-01    0.927E-02
DAV:   4    -0.167446091633E+03    0.22033E-04   -0.24518E-04  3023   0.313E-01    0.706E-02
DAV:   5    -0.167446101968E+03   -0.10335E-04   -0.15911E-04  3629   0.277E-01    0.311E-02
DAV:   6    -0.167446099657E+03    0.23102E-05   -0.13168E-04  3136   0.322E-01    0.186E-02
DAV:   7    -0.167446092017E+03    0.76404E-05   -0.46627E-05  4322   0.147E-01    0.773E-03
DAV:   8    -0.167446093244E+03   -0.12268E-05   -0.18942E-05  3700   0.392E-02    0.560E-03
DAV:   9    -0.167446093671E+03   -0.42742E-06   -0.54629E-06  2596   0.219E-02
 292 F= -.16744609E+03 E0= -.16741152E+03  d E =-.275010E-02
       N       E                     dE             d eps       ncg     rms          rms(c)
DAV:   1    -0.167435003069E+03    0.11090E-01   -0.40570E+00  2610   0.378E+00    0.283E-01
DAV:   2    -0.167446497369E+03   -0.11494E-01   -0.11943E-01  3877   0.118E+00    0.246E-01
DAV:   3    -0.167446239925E+03    0.25744E-03   -0.43513E-03  3020   0.941E-01    0.187E-01
DAV:   4    -0.167446137193E+03    0.10273E-03   -0.10127E-03  3063   0.681E-01    0.144E-01
DAV:   5    -0.167446216500E+03   -0.79307E-04   -0.80105E-04  3187   0.760E-01    0.857E-02
DAV:   6    -0.167446080686E+03    0.13581E-03   -0.65780E-04  3177   0.742E-01    0.300E-02
DAV:   7    -0.167446081768E+03   -0.10818E-05   -0.25564E-04  4495   0.237E-01    0.174E-02
DAV:   8    -0.167446084673E+03   -0.29050E-05   -0.71460E-05  3292   0.915E-02    0.116E-02
DAV:   9    -0.167446086188E+03   -0.15147E-05   -0.25026E-05  2988   0.429E-02    0.661E-03
DAV:  10    -0.167446087527E+03   -0.13388E-05   -0.58248E-06  2908   0.271E-02    0.299E-03
DAV:  11    -0.167446088429E+03   -0.90268E-06   -0.21943E-06  1756   0.213E-02
 293 F= -.16744609E+03 E0= -.16741168E+03  d E =-.274486E-02
       N       E                     dE             d eps       ncg     rms          rms(c)
DAV:   1    -0.167443804746E+03    0.22828E-02   -0.10109E+00  2610   0.188E+00    0.143E-01
DAV:   2    -0.167446623766E+03   -0.28190E-02   -0.29423E-02  3892   0.573E-01    0.122E-01
DAV:   3    -0.167446554207E+03    0.69559E-04   -0.10418E-03  3052   0.431E-01    0.929E-02
DAV:   4    -0.167446532061E+03    0.22147E-04   -0.23552E-04  3052   0.294E-01    0.710E-02
DAV:   5    -0.167446531166E+03    0.89523E-06   -0.14698E-04  4418   0.172E-01    0.214E-02
DAV:   6    -0.167446538052E+03   -0.68862E-05   -0.86617E-05  3223   0.140E-01    0.138E-02
DAV:   7    -0.167446537780E+03    0.27160E-06   -0.24332E-05  3228   0.816E-02    0.646E-03
DAV:   8    -0.167446538180E+03   -0.40018E-06   -0.52488E-06  2327   0.384E-02
 294 F= -.16744654E+03 E0= -.16741205E+03  d E =-.319461E-02
       N       E                     dE             d eps       ncg     rms          rms(c)
DAV:   1    -0.167446757835E+03   -0.22005E-03   -0.12224E-02  2658   0.213E-01    0.147E-02
DAV:   2    -0.167446791399E+03   -0.33564E-04   -0.35288E-04  3884   0.522E-02    0.125E-02
DAV:   3    -0.167446790442E+03    0.95635E-06   -0.81481E-06  2988   0.287E-02
 295 F= -.16744679E+03 E0= -.16741230E+03  d E =-.252262E-03
       N       E                     dE             d eps       ncg     rms          rms(c)
DAV:   1    -0.167447206055E+03   -0.41466E-03   -0.11057E-01  2615   0.628E-01    0.479E-02
DAV:   2    -0.167447502851E+03   -0.29680E-03   -0.31274E-03  3884   0.173E-01    0.395E-02
DAV:   3    -0.167447493350E+03    0.95005E-05   -0.82424E-05  3124   0.124E-01    0.283E-02
DAV:   4    -0.167447494190E+03   -0.83976E-06   -0.29877E-05  3100   0.125E-01    0.223E-02
DAV:   5    -0.167447495597E+03   -0.14068E-05   -0.21005E-05  3188   0.112E-01    0.100E-02
DAV:   6    -0.167447493623E+03    0.19742E-05   -0.12015E-05  3247   0.879E-02    0.421E-03
DAV:   7    -0.167447493913E+03   -0.29081E-06   -0.49507E-06  2324   0.302E-02
 296 F= -.16744749E+03 E0= -.16741303E+03  d E =-.955733E-03
       N       E                     dE             d eps       ncg     rms          rms(c)
DAV:   1    -0.167447492054E+03    0.15687E-05   -0.44283E-01  2610   0.125E+00    0.936E-02
DAV:   2    -0.167448693845E+03   -0.12018E-02   -0.12520E-02  3832   0.348E-01    0.717E-02
DAV:   3    -0.167448668613E+03    0.25232E-04   -0.36025E-04  3124   0.235E-01    0.522E-02
DAV:   4    -0.167448669758E+03   -0.11444E-05   -0.10903E-04  3090   0.240E-01    0.406E-02
DAV:   5    -0.167448680047E+03   -0.10290E-04   -0.67751E-05  3182   0.221E-01    0.200E-02
DAV:   6    -0.167448669169E+03    0.10878E-04   -0.43126E-05  3897   0.167E-01    0.763E-03
DAV:   7    -0.167448670624E+03   -0.14549E-05   -0.19649E-05  3788   0.488E-02    0.523E-03
DAV:   8    -0.167448670687E+03   -0.62981E-07   -0.39553E-06  2236   0.255E-02
 297 F= -.16744867E+03 E0= -.16741424E+03  d E =-.213251E-02
       N       E                     dE             d eps       ncg     rms          rms(c)
DAV:   1    -0.167445363308E+03    0.33073E-02   -0.17708E+00  2610   0.250E+00    0.187E-01
DAV:   2    -0.167450187883E+03   -0.48246E-02   -0.50300E-02  3850   0.711E-01    0.147E-01
DAV:   3    -0.167450088577E+03    0.99306E-04   -0.15199E-03  3108   0.506E-01    0.106E-01
DAV:   4    -0.167450068607E+03    0.19970E-04   -0.42709E-04  3111   0.461E-01    0.818E-02
DAV:   5    -0.167450097374E+03   -0.28767E-04   -0.25694E-04  3307   0.387E-01    0.356E-02
DAV:   6    -0.167450071258E+03    0.26116E-04   -0.17681E-04  3940   0.327E-01    0.161E-02
DAV:   7    -0.167450073947E+03   -0.26888E-05   -0.70607E-05  4188   0.117E-01    0.103E-02
DAV:   8    -0.167450074258E+03   -0.31089E-06   -0.17229E-05  2884   0.490E-02    0.681E-03
DAV:   9    -0.167450074580E+03   -0.32230E-06   -0.75334E-06  2876   0.258E-02
 298 F= -.16745007E+03 E0= -.16741572E+03  d E =-.353640E-02
       N       E                     dE             d eps       ncg     rms          rms(c)
DAV:   1    -0.167430095356E+03    0.19979E-01   -0.70740E+00  2610   0.501E+00    0.376E-01
DAV:   2    -0.167449749032E+03   -0.19654E-01   -0.20459E-01  3850   0.148E+00    0.302E-01
DAV:   3    -0.167449343879E+03    0.40515E-03   -0.65223E-03  3108   0.110E+00    0.215E-01
DAV:   4    -0.167449220241E+03    0.12364E-03   -0.17045E-03  3087   0.958E-01    0.167E-01
DAV:   5    -0.167449339086E+03   -0.11885E-03   -0.12611E-03  3147   0.985E-01    0.934E-02
DAV:   6    -0.167449094947E+03    0.24414E-03   -0.86310E-04  3972   0.791E-01    0.293E-02
DAV:   7    -0.167449127449E+03   -0.32502E-04   -0.38642E-04  4140   0.212E-01    0.219E-02
DAV:   8    -0.167449127894E+03   -0.44500E-06   -0.77291E-05  2996   0.998E-02    0.144E-02
DAV:   9    -0.167449127875E+03    0.19558E-07   -0.29037E-05  3020   0.545E-02    0.738E-03
DAV:  10    -0.167449128407E+03   -0.53260E-06   -0.57847E-06  2916   0.310E-02
 299 F= -.16744913E+03 E0= -.16741493E+03  d E =-.259023E-02
       N       E                     dE             d eps       ncg     rms          rms(c)
DAV:   1    -0.167441837571E+03    0.72903E-02   -0.32253E+00  2610   0.338E+00    0.252E-01
DAV:   2    -0.167450526668E+03   -0.86891E-02   -0.89987E-02  3848   0.922E-01    0.193E-01
DAV:   3    -0.167450369295E+03    0.15737E-03   -0.25010E-03  3108   0.626E-01    0.140E-01
DAV:   4    -0.167450350431E+03    0.18864E-04   -0.80693E-04  3074   0.682E-01    0.112E-01
DAV:   5    -0.167450388598E+03   -0.38167E-04   -0.54709E-04  3176   0.662E-01    0.604E-02
DAV:   6    -0.167450295645E+03    0.92954E-04   -0.33941E-04  3973   0.486E-01    0.206E-02
DAV:   7    -0.167450305980E+03   -0.10335E-04   -0.16357E-04  4108   0.132E-01    0.130E-02
DAV:   8    -0.167450306136E+03   -0.15553E-06   -0.26887E-05  3042   0.620E-02    0.916E-03
DAV:   9    -0.167450305532E+03    0.60361E-06   -0.94376E-06  2940   0.363E-02
 300 F= -.16745031E+03 E0= -.16741600E+03  d E =-.376735E-02
