Cu(100) coverage-dependent binding (RPBE
            1
     7.668573    0.000000    0.000000
     0.000000    7.668573    0.000000
     0.000000    0.000000   29.422500
   Cu   C    O    C    O    C    O    C    O 
    36     1     1     1     1     1     1     1     1
Direct configuration=     1
   0.16666667  0.16666667  0.40785113
   0.50000000  0.16666667  0.40785113
   0.83333333  0.16666667  0.40785113
   0.16666667  0.50000000  0.40785113
   0.50000000  0.50000000  0.40785113
   0.83333333  0.50000000  0.40785113
   0.16666667  0.83333333  0.40785113
   0.50000000  0.83333333  0.40785113
   0.83333333  0.83333333  0.40785113
   0.00000000  0.00000000  0.46928371
   0.33333333  0.00000000  0.46928371
   0.66666667  0.00000000  0.46928371
   0.00000000  0.33333333  0.46928371
   0.33333333  0.33333333  0.46928371
   0.66666667  0.33333333  0.46928371
   0.00000000  0.66666667  0.46928371
   0.33333333  0.66666667  0.46928371
   0.66666667  0.66666667  0.46928371
   0.16666667  0.16666667  0.53071629
   0.50000000  0.16666667  0.53071629
   0.83333333  0.16666667  0.53071629
   0.16666667  0.50000000  0.53071629
   0.50000000  0.50000000  0.53071629
   0.83333333  0.50000000  0.53071629
   0.16666667  0.83333333  0.53071629
   0.50000000  0.83333333  0.53071629
   0.83333333  0.83333333  0.53071629
   0.00000000  0.00000000  0.59214887
   0.33333333  0.00000000  0.59214887
   0.66666667  0.00000000  0.59214887
   0.00000000  0.33333333  0.59214887
   0.33333333  0.33333333  0.59214887
   0.66666667  0.33333333  0.59214887
   0.00000000  0.66666667  0.59214887
   0.33333333  0.66666667  0.59214887
   0.66666667  0.66666667  0.59214887
   0.16666667  0.16666667  0.64313026
   0.16666667  0.16666667  0.68255587
   0.16666667  0.50000000  0.64313026
   0.16666667  0.50000000  0.68255587
   0.16666667  0.83333333  0.64313026
   0.16666667  0.83333333  0.68255587
   0.50000000  0.16666667  0.64313026
   0.50000000  0.16666667  0.68255587
Direct configuration=     2
   0.16666667  0.16666667  0.40785113
   0.50000000  0.16666667  0.40785113
   0.83333333  0.16666667  0.40785113
   0.16666667  0.50000000  0.40785113
   0.50000000  0.50000000  0.40785113
   0.83333333  0.50000000  0.40785113
   0.16666667  0.83333333  0.40785113
   0.50000000  0.83333333  0.40785113
   0.83333333  0.83333333  0.40785113
   0.00000000  0.00000000  0.46928371
   0.33333333  0.00000000  0.46928371
   0.66666667  0.00000000  0.46928371
   0.00000000  0.33333333  0.46928371
   0.33333333  0.33333333  0.46928371
   0.66666667  0.33333333  0.46928371
   0.00000000  0.66666667  0.46928371
   0.33333333  0.66666667  0.46928371
   0.66666667  0.66666667  0.46928371
   0.16713025  0.16669221  0.53023318
   0.49928733  0.16669834  0.53033045
   0.83353670  0.16669290  0.53101318
   0.16684342  0.49996173  0.53023420
   0.49952517  0.49985013  0.53106198
   0.83371647  0.49967980  0.53122161
   0.16683709  0.83335094  0.53023150
   0.49952492  0.83345651  0.53105272
   0.83372271  0.83363269  0.53121906
   0.00037983  0.00022658  0.59318512
   0.33348003  0.99929012  0.59341422
   0.66621020  0.00063235  0.59286413
   0.00038100  0.33305043  0.59318561
   0.33351066  0.33401626  0.59341312
   0.66618324  0.33267470  0.59286465
   0.00047031  0.66672797  0.59319091
   0.33294864  0.66669890  0.59313064
   0.66682628  0.66669838  0.59218694
   0.16039386  0.16663871  0.63942515
   0.16367463  0.16660453  0.68554064
   0.16631894  0.50003351  0.63920984
   0.16673549  0.50004391  0.68564375
   0.16632844  0.83333260  0.63921439
   0.16671847  0.83335670  0.68564822
   0.50601065  0.16663536  0.63920062
   0.50319495  0.16662852  0.68558938
Direct configuration=     3
   0.16666667  0.16666667  0.40785113
   0.50000000  0.16666667  0.40785113
   0.83333333  0.16666667  0.40785113
   0.16666667  0.50000000  0.40785113
   0.50000000  0.50000000  0.40785113
   0.83333333  0.50000000  0.40785113
   0.16666667  0.83333333  0.40785113
   0.50000000  0.83333333  0.40785113
   0.83333333  0.83333333  0.40785113
   0.00000000  0.00000000  0.46928371
   0.33333333  0.00000000  0.46928371
   0.66666667  0.00000000  0.46928371
   0.00000000  0.33333333  0.46928371
   0.33333333  0.33333333  0.46928371
   0.66666667  0.33333333  0.46928371
   0.00000000  0.66666667  0.46928371
   0.33333333  0.66666667  0.46928371
   0.66666667  0.66666667  0.46928371
   0.16673367  0.16667036  0.53064646
   0.49989700  0.16667124  0.53066052
   0.83336273  0.16667046  0.53075920
   0.16669221  0.49999447  0.53064661
   0.49993137  0.49997834  0.53076625
   0.83338871  0.49995372  0.53078932
   0.16669130  0.83333588  0.53064622
   0.49993134  0.83335114  0.53076491
   0.83338961  0.83337660  0.53078895
   0.00005490  0.00003275  0.59229864
   0.33335454  0.99989740  0.59233175
   0.66660069  0.00009139  0.59225224
   0.00005507  0.33329245  0.59229871
   0.33335896  0.33343204  0.59233159
   0.66659680  0.33323814  0.59225232
   0.00006798  0.66667553  0.59229947
   0.33327773  0.66667133  0.59229076
   0.66668974  0.66667125  0.59215437
   0.16576005  0.16666263  0.64259475
   0.16623422  0.16665769  0.68298726
   0.16661641  0.50000484  0.64256363
   0.16667661  0.50000635  0.68300216
   0.16661778  0.83333323  0.64256429
   0.16667415  0.83333671  0.68300281
   0.50086873  0.16666214  0.64256230
   0.50046177  0.16666115  0.68299431
Direct configuration=     4
   0.16666667  0.16666667  0.40785113
   0.50000000  0.16666667  0.40785113
   0.83333333  0.16666667  0.40785113
   0.16666667  0.50000000  0.40785113
   0.50000000  0.50000000  0.40785113
   0.83333333  0.50000000  0.40785113
   0.16666667  0.83333333  0.40785113
   0.50000000  0.83333333  0.40785113
   0.83333333  0.83333333  0.40785113
   0.00000000  0.00000000  0.46928371
   0.33333333  0.00000000  0.46928371
   0.66666667  0.00000000  0.46928371
   0.00000000  0.33333333  0.46928371
   0.33333333  0.33333333  0.46928371
   0.66666667  0.33333333  0.46928371
   0.00000000  0.66666667  0.46928371
   0.33333333  0.66666667  0.46928371
   0.66666667  0.66666667  0.46928371
   0.16672957  0.16667013  0.53065073
   0.49990330  0.16667096  0.53066393
   0.83336093  0.16667023  0.53075657
   0.16669065  0.49999481  0.53065087
   0.49993557  0.49997966  0.53076320
   0.83338532  0.49995655  0.53078486
   0.16668979  0.83333572  0.53065051
   0.49993554  0.83335005  0.53076194
   0.83338617  0.83337395  0.53078451
   0.00005154  0.00003074  0.59228948
   0.33335324  0.99990367  0.59232056
   0.66660473  0.00008580  0.59224592
   0.00005170  0.33329495  0.59228954
   0.33335740  0.33342600  0.59232041
   0.66660107  0.33324396  0.59224599
   0.00006382  0.66667498  0.59229026
   0.33328113  0.66667104  0.59228208
   0.66668832  0.66667097  0.59215403
   0.16581550  0.16666287  0.64262751
   0.16626067  0.16665824  0.68296088
   0.16661948  0.50000455  0.64259829
   0.16667601  0.50000596  0.68297487
   0.16662077  0.83333323  0.64259891
   0.16667370  0.83333650  0.68297547
   0.50081559  0.16666242  0.64259704
   0.50043353  0.16666149  0.68296749
Direct configuration=     5
   0.16666667  0.16666667  0.40785113
   0.50000000  0.16666667  0.40785113
   0.83333333  0.16666667  0.40785113
   0.16666667  0.50000000  0.40785113
   0.50000000  0.50000000  0.40785113
   0.83333333  0.50000000  0.40785113
   0.16666667  0.83333333  0.40785113
   0.50000000  0.83333333  0.40785113
   0.83333333  0.83333333  0.40785113
   0.00000000  0.00000000  0.46928371
   0.33333333  0.00000000  0.46928371
   0.66666667  0.00000000  0.46928371
   0.00000000  0.33333333  0.46928371
   0.33333333  0.33333333  0.46928371
   0.66666667  0.33333333  0.46928371
   0.00000000  0.66666667  0.46928371
   0.33333333  0.66666667  0.46928371
   0.66666667  0.66666667  0.46928371
   0.16718535  0.16669494  0.53019645
   0.49917804  0.16670152  0.53030557
   0.83358696  0.16669651  0.53105190
   0.16686572  0.49995220  0.53019123
   0.49946094  0.49984768  0.53110676
   0.83377154  0.49963160  0.53129080
   0.16686057  0.83335999  0.53018882
   0.49946290  0.83345791  0.53109726
   0.83377555  0.83367775  0.53128814
   0.00063052  0.00025545  0.59337896
   0.33340224  0.99930032  0.59364484
   0.66605937  0.00081012  0.59299274
   0.00063108  0.33301744  0.59337578
   0.33343756  0.33400040  0.59364260
   0.66602991  0.33249604  0.59299287
   0.00070749  0.66673622  0.59338123
   0.33272467  0.66670482  0.59331450
   0.66684780  0.66670228  0.59218624
   0.15957542  0.16662883  0.64223231
   0.16325710  0.16658775  0.68252004
   0.16630130  0.50001001  0.64210136
   0.16672035  0.50006202  0.68252898
   0.16630780  0.83336975  0.64210186
   0.16671574  0.83334986  0.68252675
   0.50671671  0.16663295  0.64202052
   0.50363858  0.16660525  0.68252064
Direct configuration=     6
   0.16666667  0.16666667  0.40785113
   0.50000000  0.16666667  0.40785113
   0.83333333  0.16666667  0.40785113
   0.16666667  0.50000000  0.40785113
   0.50000000  0.50000000  0.40785113
   0.83333333  0.50000000  0.40785113
   0.16666667  0.83333333  0.40785113
   0.50000000  0.83333333  0.40785113
   0.83333333  0.83333333  0.40785113
   0.00000000  0.00000000  0.46928371
   0.33333333  0.00000000  0.46928371
   0.66666667  0.00000000  0.46928371
   0.00000000  0.33333333  0.46928371
   0.33333333  0.33333333  0.46928371
   0.66666667  0.33333333  0.46928371
   0.00000000  0.66666667  0.46928371
   0.33333333  0.66666667  0.46928371
   0.66666667  0.66666667  0.46928371
   0.16855268  0.16676937  0.52883358
   0.49700228  0.16679317  0.52923049
   0.83426504  0.16677535  0.53193788
   0.16739092  0.49982437  0.52881229
   0.49803705  0.49945171  0.53213746
   0.83493018  0.49865673  0.53280863
   0.16737290  0.83343279  0.52880377
   0.49804501  0.83378151  0.53210324
   0.83494369  0.83458914  0.53279903
   0.00236746  0.00092957  0.59664742
   0.33354924  0.99749025  0.59761766
   0.66442330  0.00298307  0.59523320
   0.00236924  0.33218493  0.59663449
   0.33367804  0.33572360  0.59760917
   0.66431642  0.33025227  0.59523351
   0.00263852  0.66691994  0.59665412
   0.33105530  0.66680614  0.59641173
   0.66732621  0.66679621  0.59228287
   0.14085518  0.16652668  0.64104672
   0.15424639  0.16637629  0.68119752
   0.16534674  0.50002639  0.64061055
   0.16685340  0.50023020  0.68119133
   0.16536886  0.83347931  0.64061073
   0.16684187  0.83338995  0.68118056
   0.52442004  0.16654456  0.64029098
   0.51325372  0.16643652  0.68118010
Direct configuration=     7
   0.16666667  0.16666667  0.40785113
   0.50000000  0.16666667  0.40785113
   0.83333333  0.16666667  0.40785113
   0.16666667  0.50000000  0.40785113
   0.50000000  0.50000000  0.40785113
   0.83333333  0.50000000  0.40785113
   0.16666667  0.83333333  0.40785113
   0.50000000  0.83333333  0.40785113
   0.83333333  0.83333333  0.40785113
   0.00000000  0.00000000  0.46928371
   0.33333333  0.00000000  0.46928371
   0.66666667  0.00000000  0.46928371
   0.00000000  0.33333333  0.46928371
   0.33333333  0.33333333  0.46928371
   0.66666667  0.33333333  0.46928371
   0.00000000  0.66666667  0.46928371
   0.33333333  0.66666667  0.46928371
   0.66666667  0.66666667  0.46928371
   0.16905123  0.16679651  0.52833667
   0.49620897  0.16682659  0.52883850
   0.83451227  0.16680410  0.53226092
   0.16758242  0.49977776  0.52830951
   0.49751788  0.49930734  0.53251326
   0.83535264  0.49830128  0.53336205
   0.16755970  0.83345933  0.52829877
   0.49752802  0.83389950  0.53247003
   0.83536961  0.83492145  0.53334991
   0.00300077  0.00117537  0.59783913
   0.33360284  0.99683028  0.59906619
   0.66382677  0.00377535  0.59605009
   0.00300299  0.33188139  0.59782265
   0.33376572  0.33635190  0.59905543
   0.66369166  0.32943417  0.59605047
   0.00334260  0.66698692  0.59784745
   0.33044662  0.66684308  0.59754102
   0.66750064  0.66683046  0.59231810
   0.13402955  0.16648944  0.64061443
   0.15096098  0.16629919  0.68071532
   0.16499869  0.50003237  0.64006699
   0.16690191  0.50029152  0.68070361
   0.16502652  0.83351925  0.64006704
   0.16688786  0.83340456  0.68068973
   0.53087490  0.16651233  0.63966037
   0.51675952  0.16637500  0.68069132
Direct configuration=     8
   0.16666667  0.16666667  0.40785113
   0.50000000  0.16666667  0.40785113
   0.83333333  0.16666667  0.40785113
   0.16666667  0.50000000  0.40785113
   0.50000000  0.50000000  0.40785113
   0.83333333  0.50000000  0.40785113
   0.16666667  0.83333333  0.40785113
   0.50000000  0.83333333  0.40785113
   0.83333333  0.83333333  0.40785113
   0.00000000  0.00000000  0.46928371
   0.33333333  0.00000000  0.46928371
   0.66666667  0.00000000  0.46928371
   0.00000000  0.33333333  0.46928371
   0.33333333  0.33333333  0.46928371
   0.66666667  0.33333333  0.46928371
   0.00000000  0.66666667  0.46928371
   0.33333333  0.66666667  0.46928371
   0.66666667  0.66666667  0.46928371
   0.16936763  0.16676823  0.52937878
   0.49531481  0.16680491  0.52954735
   0.83519716  0.16680457  0.53308853
   0.16745972  0.49957937  0.52910730
   0.49653489  0.49869691  0.53341001
   0.83652063  0.49712700  0.53447826
   0.16745924  0.83368127  0.52909228
   0.49659133  0.83448175  0.53337765
   0.83653918  0.83600626  0.53444987
   0.00321901  0.00016072  0.59867522
   0.33430827  0.99729245  0.59997525
   0.66393639  0.00288323  0.59686540
   0.00326038  0.33303001  0.59869576
   0.33436097  0.33586940  0.59998841
   0.66382869  0.33046828  0.59687476
   0.00364319  0.66693717  0.59888367
   0.33087969  0.66681621  0.59854149
   0.66719064  0.66684237  0.59279685
   0.12190251  0.16650489  0.64054191
   0.14617493  0.16630529  0.68053428
   0.16458309  0.49910334  0.63999455
   0.16730444  0.50066097  0.67956122
   0.16457492  0.83447833  0.63991029
   0.16731818  0.83302792  0.67965613
   0.53803387  0.16643880  0.64261853
   0.52335442  0.16627022  0.67668612
Direct configuration=     9
   0.16666667  0.16666667  0.40785113
   0.50000000  0.16666667  0.40785113
   0.83333333  0.16666667  0.40785113
   0.16666667  0.50000000  0.40785113
   0.50000000  0.50000000  0.40785113
   0.83333333  0.50000000  0.40785113
   0.16666667  0.83333333  0.40785113
   0.50000000  0.83333333  0.40785113
   0.83333333  0.83333333  0.40785113
   0.00000000  0.00000000  0.46928371
   0.33333333  0.00000000  0.46928371
   0.66666667  0.00000000  0.46928371
   0.00000000  0.33333333  0.46928371
   0.33333333  0.33333333  0.46928371
   0.66666667  0.33333333  0.46928371
   0.00000000  0.66666667  0.46928371
   0.33333333  0.66666667  0.46928371
   0.66666667  0.66666667  0.46928371
   0.16907350  0.16679452  0.52841001
   0.49614604  0.16682506  0.52888839
   0.83456048  0.16680413  0.53231916
   0.16757378  0.49976380  0.52836566
   0.49744869  0.49926438  0.53257638
   0.83543484  0.49821864  0.53344061
   0.16755263  0.83347495  0.52835461
   0.49746210  0.83394048  0.53253391
   0.83545193  0.83499779  0.53342733
   0.00301613  0.00110396  0.59789798
   0.33365249  0.99686281  0.59913017
   0.66383448  0.00371256  0.59610747
   0.00302111  0.33196223  0.59788410
   0.33380761  0.33631795  0.59912110
   0.66370130  0.32950695  0.59610848
   0.00336375  0.66698342  0.59792038
   0.33047710  0.66684119  0.59761143
   0.66747882  0.66683129  0.59235179
   0.13317606  0.16649053  0.64060933
   0.15062414  0.16629961  0.68070257
   0.16496944  0.49996698  0.64006189
   0.16693024  0.50031752  0.68062321
   0.16499473  0.83358675  0.64005601
   0.16691815  0.83337805  0.68061698
   0.53137874  0.16650716  0.63986857
   0.51722367  0.16636762  0.68040944
Direct configuration=    10
   0.16666667  0.16666667  0.40785113
   0.50000000  0.16666667  0.40785113
   0.83333333  0.16666667  0.40785113
   0.16666667  0.50000000  0.40785113
   0.50000000  0.50000000  0.40785113
   0.83333333  0.50000000  0.40785113
   0.16666667  0.83333333  0.40785113
   0.50000000  0.83333333  0.40785113
   0.83333333  0.83333333  0.40785113
   0.00000000  0.00000000  0.46928371
   0.33333333  0.00000000  0.46928371
   0.66666667  0.00000000  0.46928371
   0.00000000  0.33333333  0.46928371
   0.33333333  0.33333333  0.46928371
   0.66666667  0.33333333  0.46928371
   0.00000000  0.66666667  0.46928371
   0.33333333  0.66666667  0.46928371
   0.66666667  0.66666667  0.46928371
   0.16908436  0.16679355  0.52844581
   0.49611532  0.16682432  0.52891274
   0.83458400  0.16680415  0.53234759
   0.16756957  0.49975698  0.52839307
   0.49741493  0.49924341  0.53260718
   0.83547496  0.49817830  0.53347896
   0.16754918  0.83348258  0.52838187
   0.49742992  0.83396048  0.53256509
   0.83549211  0.83503506  0.53346511
   0.00302363  0.00106910  0.59792670
   0.33367672  0.99687869  0.59916140
   0.66383825  0.00368192  0.59613548
   0.00302995  0.33200169  0.59791410
   0.33382806  0.33630137  0.59915315
   0.66370601  0.32954247  0.59613680
   0.00337408  0.66698171  0.59795598
   0.33049198  0.66684027  0.59764580
   0.66746818  0.66683170  0.59236824
   0.13275946  0.16649106  0.64060684
   0.15045972  0.16629982  0.68069636
   0.16495516  0.49993507  0.64005940
   0.16694406  0.50033021  0.68058396
   0.16497922  0.83361970  0.64005063
   0.16693293  0.83336511  0.68058148
   0.53162467  0.16650463  0.63997019
   0.51745022  0.16636402  0.68027185
Direct configuration=    11
   0.16666667  0.16666667  0.40785113
   0.50000000  0.16666667  0.40785113
   0.83333333  0.16666667  0.40785113
   0.16666667  0.50000000  0.40785113
   0.50000000  0.50000000  0.40785113
   0.83333333  0.50000000  0.40785113
   0.16666667  0.83333333  0.40785113
   0.50000000  0.83333333  0.40785113
   0.83333333  0.83333333  0.40785113
   0.00000000  0.00000000  0.46928371
   0.33333333  0.00000000  0.46928371
   0.66666667  0.00000000  0.46928371
   0.00000000  0.33333333  0.46928371
   0.33333333  0.33333333  0.46928371
   0.66666667  0.33333333  0.46928371
   0.00000000  0.66666667  0.46928371
   0.33333333  0.66666667  0.46928371
   0.66666667  0.66666667  0.46928371
   0.16909449  0.16679264  0.52847914
   0.49608672  0.16682363  0.52893541
   0.83460591  0.16680416  0.53237407
   0.16756564  0.49975064  0.52841858
   0.49738348  0.49922388  0.53263587
   0.83551232  0.49814073  0.53351466
   0.16754596  0.83348968  0.52840725
   0.49739996  0.83397910  0.53259412
   0.83552952  0.83506976  0.53350030
   0.00303061  0.00103664  0.59795344
   0.33369929  0.99689347  0.59919048
   0.66384176  0.00365338  0.59616156
   0.00303818  0.33203843  0.59794203
   0.33384710  0.33628594  0.59918299
   0.66371039  0.32957555  0.59616317
   0.00338369  0.66698012  0.59798912
   0.33050583  0.66683941  0.59767780
   0.66745826  0.66683209  0.59238355
   0.13237154  0.16649156  0.64060452
   0.15030663  0.16630002  0.68069056
   0.16494187  0.49990535  0.64005708
   0.16695694  0.50034203  0.68054742
   0.16496477  0.83365038  0.64004561
   0.16694670  0.83335306  0.68054841
   0.53185367  0.16650228  0.64006481
   0.51766118  0.16636067  0.68014373
Direct configuration=    12
   0.16666667  0.16666667  0.40785113
   0.50000000  0.16666667  0.40785113
   0.83333333  0.16666667  0.40785113
   0.16666667  0.50000000  0.40785113
   0.50000000  0.50000000  0.40785113
   0.83333333  0.50000000  0.40785113
   0.16666667  0.83333333  0.40785113
   0.50000000  0.83333333  0.40785113
   0.83333333  0.83333333  0.40785113
   0.00000000  0.00000000  0.46928371
   0.33333333  0.00000000  0.46928371
   0.66666667  0.00000000  0.46928371
   0.00000000  0.33333333  0.46928371
   0.33333333  0.33333333  0.46928371
   0.66666667  0.33333333  0.46928371
   0.00000000  0.66666667  0.46928371
   0.33333333  0.66666667  0.46928371
   0.66666667  0.66666667  0.46928371
   0.16905466  0.16673943  0.53008451
   0.49577122  0.16677208  0.53009383
   0.83514453  0.16678317  0.53305336
   0.16725961  0.49958263  0.52974508
   0.49670849  0.49863985  0.53335526
   0.83649515  0.49711341  0.53433049
   0.16726566  0.83369651  0.52973175
   0.49677958  0.83454239  0.53332991
   0.83650725  0.83602481  0.53430077
   0.00265981  0.99962747  0.59790135
   0.33435177  0.99784484  0.59894418
   0.66451664  0.00190056  0.59636194
   0.00269463  0.33363609  0.59793289
   0.33435390  0.33533668  0.59896479
   0.66443923  0.33149995  0.59637424
   0.00307967  0.66687375  0.59816272
   0.33160299  0.66678268  0.59787299
   0.66694024  0.66681378  0.59293133
   0.12405003  0.16655707  0.64090157
   0.14749051  0.16637237  0.68095716
   0.16471834  0.49882073  0.63969556
   0.16745250  0.50071133  0.68042146
   0.16470329  0.83472919  0.63970109
   0.16749842  0.83293062  0.68043087
   0.53643950  0.16648610  0.63998745
   0.52090220  0.16625132  0.68018081
Direct configuration=    13
   0.16666667  0.16666667  0.40785113
   0.50000000  0.16666667  0.40785113
   0.83333333  0.16666667  0.40785113
   0.16666667  0.50000000  0.40785113
   0.50000000  0.50000000  0.40785113
   0.83333333  0.50000000  0.40785113
   0.16666667  0.83333333  0.40785113
   0.50000000  0.83333333  0.40785113
   0.83333333  0.83333333  0.40785113
   0.00000000  0.00000000  0.46928371
   0.33333333  0.00000000  0.46928371
   0.66666667  0.00000000  0.46928371
   0.00000000  0.33333333  0.46928371
   0.33333333  0.33333333  0.46928371
   0.66666667  0.33333333  0.46928371
   0.00000000  0.66666667  0.46928371
   0.33333333  0.66666667  0.46928371
   0.66666667  0.66666667  0.46928371
   0.16900334  0.16667086  0.53215327
   0.49536464  0.16670565  0.53158663
   0.83583862  0.16675611  0.53392873
   0.16686525  0.49936614  0.53145447
   0.49583866  0.49788722  0.53428232
   0.83776169  0.49578954  0.53538182
   0.16690445  0.83396305  0.53143857
   0.49598012  0.83526827  0.53427810
   0.83776720  0.83725555  0.53533230
   0.00218199  0.99781152  0.59783422
   0.33519260  0.99907082  0.59862678
   0.66538634  0.99964177  0.59662015
   0.00225190  0.33569494  0.59792111
   0.33500699  0.33411342  0.59868361
   0.66537846  0.33397985  0.59664623
   0.00268790  0.66673667  0.59838642
   0.33301685  0.66670957  0.59812452
   0.66627269  0.66679018  0.59363722
   0.11332644  0.16664150  0.64128437
   0.14386150  0.16646561  0.68130071
   0.16443030  0.49742303  0.63922968
   0.16809110  0.50118722  0.68025914
   0.16436633  0.83611942  0.63925711
   0.16820940  0.83238623  0.68027940
   0.54234907  0.16646525  0.63988776
   0.52507877  0.16611040  0.68022858
Direct configuration=    14
   0.16666667  0.16666667  0.40785113
   0.50000000  0.16666667  0.40785113
   0.83333333  0.16666667  0.40785113
   0.16666667  0.50000000  0.40785113
   0.50000000  0.50000000  0.40785113
   0.83333333  0.50000000  0.40785113
   0.16666667  0.83333333  0.40785113
   0.50000000  0.83333333  0.40785113
   0.83333333  0.83333333  0.40785113
   0.00000000  0.00000000  0.46928371
   0.33333333  0.00000000  0.46928371
   0.66666667  0.00000000  0.46928371
   0.00000000  0.33333333  0.46928371
   0.33333333  0.33333333  0.46928371
   0.66666667  0.33333333  0.46928371
   0.00000000  0.66666667  0.46928371
   0.33333333  0.66666667  0.46928371
   0.66666667  0.66666667  0.46928371
   0.16901345  0.16665802  0.53265468
   0.49529747  0.16669076  0.53195106
   0.83598157  0.16674908  0.53412760
   0.16678824  0.49933283  0.53186163
   0.49568117  0.49775180  0.53449164
   0.83801321  0.49553294  0.53561524
   0.16683613  0.83400699  0.53184552
   0.49583748  0.83539768  0.53449201
   0.83801818  0.83749501  0.53555998
   0.00207410  0.99735783  0.59782872
   0.33543157  0.99935081  0.59852500
   0.66564293  0.99907039  0.59669007
   0.00214775  0.33619465  0.59792764
   0.33520814  0.33382651  0.59859042
   0.66564644  0.33459561  0.59672090
   0.00258305  0.66671031  0.59844600
   0.33336692  0.66669301  0.59819865
   0.66611735  0.66678590  0.59384058
   0.11052586  0.16665505  0.64170758
   0.14263157  0.16649723  0.68117048
   0.16437876  0.49706659  0.63932547
   0.16829848  0.50126181  0.68001601
   0.16430194  0.83647387  0.63935633
   0.16843760  0.83229651  0.68003933
   0.54380937  0.16645925  0.63994793
   0.52622190  0.16607435  0.68021240
Direct configuration=    15
   0.16666667  0.16666667  0.40785113
   0.50000000  0.16666667  0.40785113
   0.83333333  0.16666667  0.40785113
   0.16666667  0.50000000  0.40785113
   0.50000000  0.50000000  0.40785113
   0.83333333  0.50000000  0.40785113
   0.16666667  0.83333333  0.40785113
   0.50000000  0.83333333  0.40785113
   0.83333333  0.83333333  0.40785113
   0.00000000  0.00000000  0.46928371
   0.33333333  0.00000000  0.46928371
   0.66666667  0.00000000  0.46928371
   0.00000000  0.33333333  0.46928371
   0.33333333  0.33333333  0.46928371
   0.66666667  0.33333333  0.46928371
   0.00000000  0.66666667  0.46928371
   0.33333333  0.66666667  0.46928371
   0.66666667  0.66666667  0.46928371
   0.16901789  0.16665238  0.53287501
   0.49526796  0.16668422  0.53211120
   0.83604438  0.16674600  0.53421498
   0.16675441  0.49931819  0.53204055
   0.49561196  0.49769229  0.53458361
   0.83812373  0.49542019  0.53571782
   0.16680611  0.83402631  0.53202434
   0.49577480  0.83545455  0.53458601
   0.83812847  0.83760023  0.53566003
   0.00202670  0.99715846  0.59782630
   0.33553658  0.99947384  0.59848027
   0.66575569  0.99881930  0.59672080
   0.00210198  0.33641424  0.59793050
   0.33529653  0.33370043  0.59854947
   0.66576419  0.33486620  0.59675371
   0.00253698  0.66669873  0.59847218
   0.33352076  0.66668573  0.59823123
   0.66604909  0.66678402  0.59392995
   0.10929520  0.16666100  0.64189355
   0.14209110  0.16651112  0.68111325
   0.16435611  0.49690997  0.63936756
   0.16838961  0.50129458  0.67990917
   0.16427364  0.83662963  0.63939993
   0.16853788  0.83225709  0.67993384
   0.54445107  0.16645661  0.63997437
   0.52672424  0.16605850  0.68020529
Direct configuration=    16
   0.16666667  0.16666667  0.40785113
   0.50000000  0.16666667  0.40785113
   0.83333333  0.16666667  0.40785113
   0.16666667  0.50000000  0.40785113
   0.50000000  0.50000000  0.40785113
   0.83333333  0.50000000  0.40785113
   0.16666667  0.83333333  0.40785113
   0.50000000  0.83333333  0.40785113
   0.83333333  0.83333333  0.40785113
   0.00000000  0.00000000  0.46928371
   0.33333333  0.00000000  0.46928371
   0.66666667  0.00000000  0.46928371
   0.00000000  0.33333333  0.46928371
   0.33333333  0.33333333  0.46928371
   0.66666667  0.33333333  0.46928371
   0.00000000  0.66666667  0.46928371
   0.33333333  0.66666667  0.46928371
   0.66666667  0.66666667  0.46928371
   0.16904490  0.16665746  0.53287107
   0.49531175  0.16668668  0.53210848
   0.83601068  0.16674583  0.53419643
   0.16678284  0.49934522  0.53202552
   0.49568237  0.49775488  0.53456164
   0.83804815  0.49550730  0.53568986
   0.16683418  0.83399488  0.53201007
   0.49584300  0.83539039  0.53456336
   0.83805482  0.83752001  0.53563204
   0.00204359  0.99716318  0.59784778
   0.33559801  0.99943412  0.59844980
   0.66580948  0.99879694  0.59673472
   0.00211286  0.33639489  0.59794934
   0.33536765  0.33373173  0.59851893
   0.66580983  0.33487669  0.59676980
   0.00251727  0.66670844  0.59848024
   0.33353597  0.66668670  0.59824754
   0.66606145  0.66678617  0.59397178
   0.10869822  0.16665409  0.64197946
   0.14188865  0.16651703  0.68118442
   0.16435813  0.49685769  0.63938011
   0.16848273  0.50126929  0.67990901
   0.16427201  0.83668507  0.63941044
   0.16863699  0.83228923  0.67993357
   0.54454468  0.16645769  0.64002332
   0.52687876  0.16605357  0.68022799
Direct configuration=    17
   0.16666667  0.16666667  0.40785113
   0.50000000  0.16666667  0.40785113
   0.83333333  0.16666667  0.40785113
   0.16666667  0.50000000  0.40785113
   0.50000000  0.50000000  0.40785113
   0.83333333  0.50000000  0.40785113
   0.16666667  0.83333333  0.40785113
   0.50000000  0.83333333  0.40785113
   0.83333333  0.83333333  0.40785113
   0.00000000  0.00000000  0.46928371
   0.33333333  0.00000000  0.46928371
   0.66666667  0.00000000  0.46928371
   0.00000000  0.33333333  0.46928371
   0.33333333  0.33333333  0.46928371
   0.66666667  0.33333333  0.46928371
   0.00000000  0.66666667  0.46928371
   0.33333333  0.66666667  0.46928371
   0.66666667  0.66666667  0.46928371
   0.16912592  0.16667269  0.53285926
   0.49544314  0.16669408  0.53210033
   0.83590958  0.16674533  0.53414077
   0.16686815  0.49942631  0.53198042
   0.49589361  0.49794267  0.53449572
   0.83782142  0.49576862  0.53560599
   0.16691838  0.83390061  0.53196725
   0.49604759  0.83519789  0.53449541
   0.83783388  0.83727936  0.53554804
   0.00209426  0.99717735  0.59791221
   0.33578231  0.99931497  0.59835840
   0.66597087  0.99872984  0.59677648
   0.00214548  0.33633681  0.59800584
   0.33558099  0.33382564  0.59842728
   0.66594674  0.33490818  0.59681808
   0.00245815  0.66673754  0.59850442
   0.33358161  0.66668960  0.59829649
   0.66609852  0.66679261  0.59409727
   0.10690731  0.16663335  0.64223717
   0.14128131  0.16653476  0.68139795
   0.16436420  0.49670088  0.63941777
   0.16876210  0.50119343  0.67990853
   0.16426714  0.83685140  0.63944196
   0.16893430  0.83238567  0.67993277
   0.54482552  0.16646092  0.64017018
   0.52734234  0.16603875  0.68029608
Direct configuration=    18
   0.16666667  0.16666667  0.40785113
   0.50000000  0.16666667  0.40785113
   0.83333333  0.16666667  0.40785113
   0.16666667  0.50000000  0.40785113
   0.50000000  0.50000000  0.40785113
   0.83333333  0.50000000  0.40785113
   0.16666667  0.83333333  0.40785113
   0.50000000  0.83333333  0.40785113
   0.83333333  0.83333333  0.40785113
   0.00000000  0.00000000  0.46928371
   0.33333333  0.00000000  0.46928371
   0.66666667  0.00000000  0.46928371
   0.00000000  0.33333333  0.46928371
   0.33333333  0.33333333  0.46928371
   0.66666667  0.33333333  0.46928371
   0.00000000  0.66666667  0.46928371
   0.33333333  0.66666667  0.46928371
   0.66666667  0.66666667  0.46928371
   0.16928797  0.16670316  0.53283562
   0.49570592  0.16670888  0.53208403
   0.83570738  0.16674433  0.53402946