   2   2   0   0
  0.1687500E+04  0.1500000E-08  0.1500000E-08  0.1500000E-08  0.5000000E-15
   1.0000000000000000E-004
  CAR 
 CO molecule in vacuum                   
      1.83481722    -30.64605735  301     -8.93800618      1.00000000
    -30.646  0.0000E+00  0.0000E+00
    -30.538  0.0000E+00  0.0000E+00
    -30.430  0.0000E+00  0.0000E+00
    -30.321  0.0000E+00  0.0000E+00
    -30.213  0.0000E+00  0.0000E+00
    -30.105  0.0000E+00  0.0000E+00
    -29.996  0.0000E+00  0.0000E+00
    -29.888  0.0000E+00  0.0000E+00
    -29.780  0.0000E+00  0.0000E+00
    -29.672  0.0000E+00  0.0000E+00
    -29.563  0.0000E+00  0.0000E+00
    -29.455  0.0000E+00  0.0000E+00
    -29.347  0.0000E+00  0.0000E+00
    -29.239  0.0000E+00  0.0000E+00
    -29.130  0.3694E+00  0.4000E-01
    -29.022  0.0000E+00  0.4000E-01
    -28.914  0.0000E+00  0.4000E-01
    -28.805  0.0000E+00  0.4000E-01
    -28.697  0.0000E+00  0.4000E-01
    -28.589  0.0000E+00  0.4000E-01
    -28.481  0.0000E+00  0.4000E-01
    -28.372  0.0000E+00  0.4000E-01
    -28.264  0.0000E+00  0.4000E-01
    -28.156  0.0000E+00  0.4000E-01
    -28.048  0.0000E+00  0.4000E-01
    -27.939  0.0000E+00  0.4000E-01
    -27.831  0.0000E+00  0.4000E-01
    -27.723  0.0000E+00  0.4000E-01
    -27.615  0.0000E+00  0.4000E-01
    -27.506  0.0000E+00  0.4000E-01
    -27.398  0.0000E+00  0.4000E-01
    -27.290  0.0000E+00  0.4000E-01
    -27.181  0.0000E+00  0.4000E-01
    -27.073  0.0000E+00  0.4000E-01
    -26.965  0.0000E+00  0.4000E-01
    -26.857  0.0000E+00  0.4000E-01
    -26.748  0.0000E+00  0.4000E-01
    -26.640  0.0000E+00  0.4000E-01
    -26.532  0.0000E+00  0.4000E-01
    -26.424  0.0000E+00  0.4000E-01
    -26.315  0.0000E+00  0.4000E-01
    -26.207  0.0000E+00  0.4000E-01
    -26.099  0.0000E+00  0.4000E-01
    -25.990  0.0000E+00  0.4000E-01
    -25.882  0.0000E+00  0.4000E-01
    -25.774  0.0000E+00  0.4000E-01
    -25.666  0.0000E+00  0.4000E-01
    -25.557  0.0000E+00  0.4000E-01
    -25.449  0.0000E+00  0.4000E-01
    -25.341  0.0000E+00  0.4000E-01
    -25.233  0.0000E+00  0.4000E-01
    -25.124  0.0000E+00  0.4000E-01
    -25.016  0.0000E+00  0.4000E-01
    -24.908  0.0000E+00  0.4000E-01
    -24.799  0.0000E+00  0.4000E-01
    -24.691  0.0000E+00  0.4000E-01
    -24.583  0.0000E+00  0.4000E-01
    -24.475  0.0000E+00  0.4000E-01
    -24.366  0.0000E+00  0.4000E-01
    -24.258  0.0000E+00  0.4000E-01
    -24.150  0.0000E+00  0.4000E-01
    -24.042  0.0000E+00  0.4000E-01
    -23.933  0.0000E+00  0.4000E-01
    -23.825  0.0000E+00  0.4000E-01
    -23.717  0.0000E+00  0.4000E-01
    -23.609  0.0000E+00  0.4000E-01
    -23.500  0.0000E+00  0.4000E-01
    -23.392  0.0000E+00  0.4000E-01
    -23.284  0.0000E+00  0.4000E-01
    -23.175  0.0000E+00  0.4000E-01
    -23.067  0.0000E+00  0.4000E-01
    -22.959  0.0000E+00  0.4000E-01
    -22.851  0.0000E+00  0.4000E-01
    -22.742  0.0000E+00  0.4000E-01
    -22.634  0.0000E+00  0.4000E-01
    -22.526  0.0000E+00  0.4000E-01
    -22.418  0.0000E+00  0.4000E-01
    -22.309  0.0000E+00  0.4000E-01
    -22.201  0.0000E+00  0.4000E-01
    -22.093  0.0000E+00  0.4000E-01
    -21.984  0.0000E+00  0.4000E-01
    -21.876  0.0000E+00  0.4000E-01
    -21.768  0.0000E+00  0.4000E-01
    -21.660  0.0000E+00  0.4000E-01
    -21.551  0.0000E+00  0.4000E-01
    -21.443  0.0000E+00  0.4000E-01
    -21.335  0.0000E+00  0.4000E-01
    -21.227  0.0000E+00  0.4000E-01
    -21.118  0.0000E+00  0.4000E-01
    -21.010  0.0000E+00  0.4000E-01
    -20.902  0.0000E+00  0.4000E-01
    -20.794  0.0000E+00  0.4000E-01
    -20.685  0.0000E+00  0.4000E-01
    -20.577  0.0000E+00  0.4000E-01
    -20.469  0.0000E+00  0.4000E-01
    -20.360  0.0000E+00  0.4000E-01
    -20.252  0.0000E+00  0.4000E-01
    -20.144  0.0000E+00  0.4000E-01
    -20.036  0.0000E+00  0.4000E-01
    -19.927  0.0000E+00  0.4000E-01
    -19.819  0.0000E+00  0.4000E-01
    -19.711  0.0000E+00  0.4000E-01
    -19.603  0.0000E+00  0.4000E-01
    -19.494  0.0000E+00  0.4000E-01
    -19.386  0.0000E+00  0.4000E-01
    -19.278  0.0000E+00  0.4000E-01
    -19.169  0.0000E+00  0.4000E-01
    -19.061  0.0000E+00  0.4000E-01
    -18.953  0.0000E+00  0.4000E-01
    -18.845  0.0000E+00  0.4000E-01
    -18.736  0.0000E+00  0.4000E-01
    -18.628  0.0000E+00  0.4000E-01
    -18.520  0.0000E+00  0.4000E-01
    -18.412  0.0000E+00  0.4000E-01
    -18.303  0.0000E+00  0.4000E-01
    -18.195  0.0000E+00  0.4000E-01
    -18.087  0.0000E+00  0.4000E-01
    -17.979  0.0000E+00  0.4000E-01
    -17.870  0.0000E+00  0.4000E-01
    -17.762  0.0000E+00  0.4000E-01
    -17.654  0.0000E+00  0.4000E-01
    -17.545  0.0000E+00  0.4000E-01
    -17.437  0.0000E+00  0.4000E-01
    -17.329  0.0000E+00  0.4000E-01
    -17.221  0.0000E+00  0.4000E-01
    -17.112  0.0000E+00  0.4000E-01
    -17.004  0.0000E+00  0.4000E-01
    -16.896  0.0000E+00  0.4000E-01
    -16.788  0.0000E+00  0.4000E-01
    -16.679  0.0000E+00  0.4000E-01
    -16.571  0.0000E+00  0.4000E-01
    -16.463  0.0000E+00  0.4000E-01
    -16.354  0.0000E+00  0.4000E-01
    -16.246  0.0000E+00  0.4000E-01
    -16.138  0.0000E+00  0.4000E-01
    -16.030  0.0000E+00  0.4000E-01
    -15.921  0.0000E+00  0.4000E-01
    -15.813  0.0000E+00  0.4000E-01
    -15.705  0.0000E+00  0.4000E-01
    -15.597  0.0000E+00  0.4000E-01
    -15.488  0.0000E+00  0.4000E-01
    -15.380  0.0000E+00  0.4000E-01
    -15.272  0.0000E+00  0.4000E-01
    -15.164  0.0000E+00  0.4000E-01
    -15.055  0.0000E+00  0.4000E-01
    -14.947  0.0000E+00  0.4000E-01
    -14.839  0.0000E+00  0.4000E-01
    -14.730  0.0000E+00  0.4000E-01
    -14.622  0.0000E+00  0.4000E-01
    -14.514  0.0000E+00  0.4000E-01
    -14.406  0.0000E+00  0.4000E-01
    -14.297  0.0000E+00  0.4000E-01
    -14.189  0.0000E+00  0.4000E-01
    -14.081  0.0000E+00  0.4000E-01
    -13.973  0.3694E+00  0.8000E-01
    -13.864  0.0000E+00  0.8000E-01
    -13.756  0.0000E+00  0.8000E-01
    -13.648  0.0000E+00  0.8000E-01
    -13.539  0.0000E+00  0.8000E-01
    -13.431  0.0000E+00  0.8000E-01
    -13.323  0.0000E+00  0.8000E-01
    -13.215  0.0000E+00  0.8000E-01
    -13.106  0.0000E+00  0.8000E-01
    -12.998  0.0000E+00  0.8000E-01
    -12.890  0.0000E+00  0.8000E-01
    -12.782  0.0000E+00  0.8000E-01
    -12.673  0.0000E+00  0.8000E-01
    -12.565  0.0000E+00  0.8000E-01
    -12.457  0.0000E+00  0.8000E-01
    -12.348  0.0000E+00  0.8000E-01
    -12.240  0.0000E+00  0.8000E-01
    -12.132  0.0000E+00  0.8000E-01
    -12.024  0.0000E+00  0.8000E-01
    -11.915  0.0000E+00  0.8000E-01
    -11.807  0.0000E+00  0.8000E-01
    -11.699  0.0000E+00  0.8000E-01
    -11.591  0.7062E+00  0.1565E+00
    -11.482  0.0000E+00  0.1600E+00
    -11.374  0.0000E+00  0.1600E+00
    -11.266  0.0000E+00  0.1600E+00
    -11.158  0.0000E+00  0.1600E+00
    -11.049  0.0000E+00  0.1600E+00
    -10.941  0.0000E+00  0.1600E+00
    -10.833  0.0000E+00  0.1600E+00
    -10.724  0.0000E+00  0.1600E+00
    -10.616  0.0000E+00  0.1600E+00
    -10.508  0.0000E+00  0.1600E+00
    -10.400  0.0000E+00  0.1600E+00
    -10.291  0.0000E+00  0.1600E+00
    -10.183  0.0000E+00  0.1600E+00
    -10.075  0.0000E+00  0.1600E+00
     -9.967  0.0000E+00  0.1600E+00
     -9.858  0.0000E+00  0.1600E+00
     -9.750  0.0000E+00  0.1600E+00
     -9.642  0.0000E+00  0.1600E+00
     -9.533  0.0000E+00  0.1600E+00
     -9.425  0.0000E+00  0.1600E+00
     -9.317  0.0000E+00  0.1600E+00
     -9.209  0.0000E+00  0.1600E+00
     -9.100  0.0000E+00  0.1600E+00
     -8.992  0.3622E+00  0.1992E+00
     -8.884  0.0000E+00  0.2000E+00
     -8.776  0.0000E+00  0.2000E+00
     -8.667  0.0000E+00  0.2000E+00
     -8.559  0.0000E+00  0.2000E+00
     -8.451  0.0000E+00  0.2000E+00
     -8.343  0.0000E+00  0.2000E+00
     -8.234  0.0000E+00  0.2000E+00
     -8.126  0.0000E+00  0.2000E+00
     -8.018  0.0000E+00  0.2000E+00
     -7.909  0.0000E+00  0.2000E+00
     -7.801  0.0000E+00  0.2000E+00
     -7.693  0.0000E+00  0.2000E+00
     -7.585  0.0000E+00  0.2000E+00
     -7.476  0.0000E+00  0.2000E+00
     -7.368  0.0000E+00  0.2000E+00
     -7.260  0.0000E+00  0.2000E+00
     -7.152  0.0000E+00  0.2000E+00
     -7.043  0.0000E+00  0.2000E+00
     -6.935  0.0000E+00  0.2000E+00
     -6.827  0.0000E+00  0.2000E+00
     -6.718  0.0000E+00  0.2000E+00
     -6.610  0.0000E+00  0.2000E+00
     -6.502  0.0000E+00  0.2000E+00
     -6.394  0.0000E+00  0.2000E+00
     -6.285  0.0000E+00  0.2000E+00
     -6.177  0.0000E+00  0.2000E+00
     -6.069  0.0000E+00  0.2000E+00
     -5.961  0.0000E+00  0.2000E+00
     -5.852  0.0000E+00  0.2000E+00
     -5.744  0.0000E+00  0.2000E+00
     -5.636  0.0000E+00  0.2000E+00
     -5.528  0.0000E+00  0.2000E+00
     -5.419  0.0000E+00  0.2000E+00
     -5.311  0.0000E+00  0.2000E+00
     -5.203  0.0000E+00  0.2000E+00
     -5.094  0.0000E+00  0.2000E+00
     -4.986  0.0000E+00  0.2000E+00
     -4.878  0.0000E+00  0.2000E+00
     -4.770  0.0000E+00  0.2000E+00
     -4.661  0.0000E+00  0.2000E+00
     -4.553  0.0000E+00  0.2000E+00
     -4.445  0.0000E+00  0.2000E+00
     -4.337  0.0000E+00  0.2000E+00
     -4.228  0.0000E+00  0.2000E+00
     -4.120  0.0000E+00  0.2000E+00
     -4.012  0.0000E+00  0.2000E+00
     -3.903  0.0000E+00  0.2000E+00
     -3.795  0.0000E+00  0.2000E+00
     -3.687  0.0000E+00  0.2000E+00
     -3.579  0.0000E+00  0.2000E+00
     -3.470  0.0000E+00  0.2000E+00
     -3.362  0.0000E+00  0.2000E+00
     -3.254  0.0000E+00  0.2000E+00
     -3.146  0.0000E+00  0.2000E+00
     -3.037  0.0000E+00  0.2000E+00
     -2.929  0.0000E+00  0.2000E+00
     -2.821  0.0000E+00  0.2000E+00
     -2.713  0.0000E+00  0.2000E+00
     -2.604  0.0000E+00  0.2000E+00
     -2.496  0.0000E+00  0.2000E+00
     -2.388  0.0000E+00  0.2000E+00
     -2.279  0.0000E+00  0.2000E+00
     -2.171  0.4102E-16  0.2000E+00
     -2.063  0.7389E+00  0.2800E+00
     -1.955  0.0000E+00  0.2800E+00
     -1.846  0.0000E+00  0.2800E+00
     -1.738  0.0000E+00  0.2800E+00
     -1.630  0.0000E+00  0.2800E+00
     -1.522  0.0000E+00  0.2800E+00
     -1.413  0.0000E+00  0.2800E+00
     -1.305  0.0000E+00  0.2800E+00
     -1.197  0.0000E+00  0.2800E+00
     -1.088  0.0000E+00  0.2800E+00
     -0.980  0.0000E+00  0.2800E+00
     -0.872  0.0000E+00  0.2800E+00
     -0.764  0.0000E+00  0.2800E+00
     -0.655  0.0000E+00  0.2800E+00
     -0.547  0.0000E+00  0.2800E+00
     -0.439  0.0000E+00  0.2800E+00
     -0.331  0.0000E+00  0.2800E+00
     -0.222  0.1881E-09  0.2800E+00
     -0.114  0.3694E+00  0.3200E+00
     -0.006  0.0000E+00  0.3200E+00
      0.103  0.0000E+00  0.3200E+00
      0.211  0.0000E+00  0.3200E+00
      0.319  0.4764E-08  0.3200E+00
      0.427  0.3694E+00  0.3600E+00
      0.536  0.0000E+00  0.3600E+00
      0.644  0.0000E+00  0.3600E+00
      0.752  0.0000E+00  0.3600E+00
      0.860  0.0000E+00  0.3600E+00
      0.969  0.0000E+00  0.3600E+00
      1.077  0.0000E+00  0.3600E+00
      1.185  0.0000E+00  0.3600E+00
      1.293  0.0000E+00  0.3600E+00
      1.402  0.0000E+00  0.3600E+00
      1.510  0.0000E+00  0.3600E+00
      1.618  0.0000E+00  0.3600E+00
      1.727  0.0000E+00  0.3600E+00
      1.835  0.0000E+00  0.3600E+00
