    2    2   50    1
  0.1687500E+04  0.1500000E-08  0.1500000E-08  0.1500000E-08  0.5000000E-15
   1.0000000000000000E-004
  CAR 
 CO molecule in vacuum                   
     10      1      9
 
  0.1262379E-14  0.1262379E-14  0.1262379E-14  0.1000000E+01
      1        -29.169654   1.000000
      2        -14.006373   1.000000
      3        -11.602657   1.000000
      4        -11.602657   1.000000
      5         -9.006721   1.000000
      6         -2.112571   0.000000
      7         -2.112571   0.000000
      8         -0.179125   0.000000
      9          0.358414   0.000000
