       N       E                     dE             d eps       ncg     rms          rms(c)
DAV:   1     0.575828707781E+02    0.57583E+02   -0.21524E+03    34   0.439E+02
DAV:   2    -0.772928548638E+01   -0.65312E+02   -0.65305E+02    26   0.146E+02
DAV:   3    -0.150344318490E+02   -0.73051E+01   -0.72998E+01    20   0.563E+01
DAV:   4    -0.152278833791E+02   -0.19345E+00   -0.19345E+00    34   0.909E+00
DAV:   5    -0.152280966993E+02   -0.21332E-03   -0.21332E-03    28   0.300E-01    0.703E+00
DAV:   6    -0.145824825230E+02    0.64561E+00   -0.36402E+00    19   0.137E+01    0.380E+00
DAV:   7    -0.144535765306E+02    0.12891E+00   -0.72323E-01    18   0.540E+00    0.195E+00
DAV:   8    -0.144209459420E+02    0.32631E-01   -0.16546E-01    18   0.330E+00    0.503E-01
DAV:   9    -0.144206754858E+02    0.27046E-03   -0.87525E-03    20   0.780E-01    0.120E-01
DAV:  10    -0.144217174105E+02   -0.10419E-02   -0.14820E-03    18   0.303E-01    0.373E-02
DAV:  11    -0.144237805880E+02   -0.20632E-02   -0.46334E-04    18   0.141E-01    0.190E-02
DAV:  12    -0.144246235228E+02   -0.84293E-03   -0.13982E-04    18   0.658E-02    0.941E-03
DAV:  13    -0.144254898282E+02   -0.86631E-03   -0.22808E-04    19   0.694E-02    0.652E-03
DAV:  14    -0.144257913328E+02   -0.30150E-03   -0.26961E-05    20   0.241E-02    0.358E-03
DAV:  15    -0.144261182302E+02   -0.32690E-03   -0.26823E-05    20   0.251E-02    0.374E-03
DAV:  16    -0.144262001430E+02   -0.81913E-04   -0.48433E-06    18   0.124E-02    0.164E-03
DAV:  17    -0.144262475167E+02   -0.47374E-04   -0.16820E-06    19   0.716E-03    0.912E-04
DAV:  18    -0.144262594804E+02   -0.11964E-04   -0.19676E-07    19   0.279E-03    0.570E-04
DAV:  19    -0.144262658046E+02   -0.63242E-05   -0.10845E-07    19   0.167E-03    0.127E-04
DAV:  20    -0.144262676710E+02   -0.18664E-05   -0.17549E-08    18   0.754E-04    0.183E-04
DAV:  21    -0.144262682863E+02   -0.61530E-06   -0.10032E-08    18   0.719E-04
   1 F= -.14426268E+02 E0= -.14426268E+02  d E =-.144263E+02
       N       E                     dE             d eps       ncg     rms          rms(c)
DAV:   1    -0.143027412228E+02    0.12353E+00   -0.85851E+00    18   0.307E+01    0.129E+00
DAV:   2    -0.142966589227E+02    0.60823E-02   -0.16299E-01    20   0.389E+00    0.586E-01
DAV:   3    -0.142910631164E+02    0.55958E-02   -0.20245E-02    20   0.133E+00    0.207E-01
DAV:   4    -0.142910001687E+02    0.62948E-04   -0.17312E-03    28   0.358E-01    0.891E-02
DAV:   5    -0.142911742721E+02   -0.17410E-03   -0.21097E-04    19   0.123E-01    0.296E-02
DAV:   6    -0.142912724927E+02   -0.98221E-04   -0.86094E-05    20   0.630E-02    0.851E-03
DAV:   7    -0.142914308222E+02   -0.15833E-03   -0.24555E-05    20   0.338E-02    0.421E-03
DAV:   8    -0.142915458650E+02   -0.11504E-03   -0.17281E-05    20   0.238E-02    0.347E-03
DAV:   9    -0.142916670267E+02   -0.12116E-03   -0.14998E-05    20   0.193E-02    0.139E-03
DAV:  10    -0.142917197888E+02   -0.52762E-04   -0.34273E-06    28   0.830E-03    0.107E-03
DAV:  11    -0.142917515537E+02   -0.31765E-04   -0.88477E-07    20   0.524E-03    0.440E-04
DAV:  12    -0.142917666618E+02   -0.15108E-04   -0.36508E-07    18   0.293E-03    0.339E-04
DAV:  13    -0.142917715936E+02   -0.49318E-05   -0.68900E-08    19   0.149E-03    0.182E-04
DAV:  14    -0.142917732168E+02   -0.16232E-05   -0.24213E-08    18   0.832E-04    0.710E-05
DAV:  15    -0.142917738575E+02   -0.64069E-06   -0.38459E-09    19   0.356E-04
   2 F= -.14291774E+02 E0= -.14291774E+02  d E =0.134494E+00
       N       E                     dE             d eps       ncg     rms          rms(c)
DAV:   1    -0.144331270469E+02   -0.14135E+00   -0.70078E+00    18   0.278E+01    0.124E+00
DAV:   2    -0.144325883183E+02    0.53873E-03   -0.15453E-01    19   0.377E+00    0.527E-01
DAV:   3    -0.144272566775E+02    0.53316E-02   -0.14407E-02    27   0.111E+00    0.207E-01
DAV:   4    -0.144270233118E+02    0.23337E-03   -0.23314E-03    19   0.462E-01    0.760E-02
DAV:   5    -0.144271403168E+02   -0.11701E-03   -0.15075E-04    18   0.117E-01    0.142E-02
DAV:   6    -0.144272482327E+02   -0.10792E-03   -0.14668E-05    19   0.282E-02    0.626E-03
DAV:   7    -0.144274294139E+02   -0.18118E-03   -0.20574E-05    19   0.255E-02    0.503E-03
DAV:   8    -0.144275658555E+02   -0.13644E-03   -0.13028E-05    20   0.195E-02    0.294E-03
DAV:   9    -0.144277252980E+02   -0.15944E-03   -0.18329E-05    20   0.181E-02    0.146E-03
DAV:  10    -0.144277782644E+02   -0.52966E-04   -0.37275E-06    20   0.817E-03    0.111E-03
DAV:  11    -0.144278122354E+02   -0.33971E-04   -0.12036E-06    28   0.523E-03    0.422E-04
DAV:  12    -0.144278238235E+02   -0.11588E-04   -0.18661E-07    20   0.211E-03    0.273E-04
DAV:  13    -0.144278319925E+02   -0.81690E-05   -0.19543E-07    27   0.191E-03    0.144E-04
DAV:  14    -0.144278345417E+02   -0.25492E-05   -0.41802E-08    20   0.941E-04    0.809E-05
DAV:  15    -0.144278352569E+02   -0.71519E-06   -0.64664E-09    20   0.406E-04
   3 F= -.14427835E+02 E0= -.14427835E+02  d E =-.156697E-02
