 vasp.6.5.1 10Mar25 (build Mar 14 2026 15:48:08) complex                         
 executed on              LinuxNV date 2026.03.23  15:40:20
 running    1 mpi-ranks, with    1 threads/rank, on    1 nodes
 distrk:  each k-point on    1 cores,    1 groups
 distr:  one band on NCORE=   1 cores,    1 groups
 Offloading initialized ...    1 GPUs detected


--------------------------------------------------------------------------------------------------------


 INCAR:
   SYSTEM = CO molecule in vacuum
   ENCUT = 450
   EDIFF = 1E-6
   ISMEAR = 0
   SIGMA = 0.01
   ALGO = Normal
   PREC = Normal
   GGA = RP
   IBRION = 2
   NSW = 50
   ISIF = 2
   EDIFFG = -0.01
   ISPIN = 1
   LREAL = .FALSE.
   LWAVE = .FALSE.
   LCHARG = .FALSE.

 POTCAR:    PAW_PBE C 08Apr2002                   
 POTCAR:    PAW_PBE O 08Apr2002                   
 POTCAR:    PAW_PBE C 08Apr2002                   
   SHA256 =  253f7b50bb8d59471dbedb8285d89021f4a42ed1a2c5d38a03a736e69125dd95 C/POTCAR              
   COPYR  = (c) Copyright 08Apr2002 Georg Kresse                                                    
   COPYR  = This file is part of the software VASP. Any use, copying, and all other rights are regul
   COPYR  = If you do not have a valid VASP license, you may not use, copy or distribute this file. 
   VRHFIN =C: s2p2                                                                                  
   LEXCH  = PE                                                                                      
   EATOM  =   147.1560 eV,   10.8157 Ry                                                             
                                                                                                    
   TITEL  = PAW_PBE C 08Apr2002                                                                     
   LULTRA =        F    use ultrasoft PP ?                                                          
   IUNSCR =        1    unscreen: 0-lin 1-nonlin 2-no                                               
   RPACOR =    1.200    partial core radius                                                         
   POMASS =   12.011; ZVAL   =    4.000    mass and valenz                                          
   RCORE  =    1.500    outmost cutoff radius                                                       
   RWIGS  =    1.630; RWIGS  =    0.863    wigner-seitz radius (au A)                               
   ENMAX  =  400.000; ENMIN  =  300.000 eV                                                          
   ICORE  =        2    local potential                                                             
   LCOR   =        T    correct aug charges                                                         
   LPAW   =        T    paw PP                                                                      
   EAUG   =  644.873                                                                                
   DEXC   =    0.000                                                                                
   RMAX   =    1.529    core radius for proj-oper                                                   
   RAUG   =    1.300    factor for augmentation sphere                                              
   RDEP   =    1.501    radius for radial grids                                                     
   RDEPT  =    1.300    core radius for aug-charge                                                  
                                                                                                    
   Atomic configuration                                                                             
    4 entries                                                                                       
     n  l   j            E        occ.                                                              
     1  0  0.50      -273.3789   2.0000                                                             
     2  0  0.50       -13.7508   2.0000                                                             
     2  1  0.50        -5.2854   2.0000                                                             
     3  2  1.50        -5.4423   0.0000                                                             
   Description                                                                                      
     l       E           TYP  RCUT    TYP  RCUT                                                     
     0    -13.7508458     23  1.200                                                                 
     0     -8.2022199     23  1.200                                                                 
     1     -5.2854383     23  1.500                                                                 
     1     34.0145650     23  1.500                                                                 
     2     -5.4423304      7  1.500                                                                 
  local pseudopotential read in
  partial core-charges read in
  partial kinetic energy density read in
  atomic valenz-charges read in
  non local Contribution for L=            0  read in
    real space projection operators read in
  non local Contribution for L=            0  read in
    real space projection operators read in
  non local Contribution for L=            1  read in
    real space projection operators read in
  non local Contribution for L=            1  read in
    real space projection operators read in
    PAW grid and wavefunctions read in
 
   number of l-projection  operators is LMAX  =            4
   number of lm-projection operators is LMMAX =            8
 
 POTCAR:    PAW_PBE O 08Apr2002                   
   SHA256 =  818f92134a0a090dccd8ba1447fa70422a3b330e708bb4f08108d8ae51209ddf O/POTCAR              
   COPYR  = (c) Copyright 08Apr2002 Georg Kresse                                                    
   COPYR  = This file is part of the software VASP. Any use, copying, and all other rights are regul
   COPYR  = If you do not have a valid VASP license, you may not use, copy or distribute this file. 
   VRHFIN =O: s2p4                                                                                  
   LEXCH  = PE                                                                                      
   EATOM  =   432.3788 eV,   31.7789 Ry                                                             
                                                                                                    
   TITEL  = PAW_PBE O 08Apr2002                                                                     
   LULTRA =        F    use ultrasoft PP ?                                                          
   IUNSCR =        1    unscreen: 0-lin 1-nonlin 2-no                                               
   RPACOR =    1.200    partial core radius                                                         
   POMASS =   16.000; ZVAL   =    6.000    mass and valenz                                          
   RCORE  =    1.520    outmost cutoff radius                                                       
   RWIGS  =    1.550; RWIGS  =    0.820    wigner-seitz radius (au A)                               
   ENMAX  =  400.000; ENMIN  =  300.000 eV                                                          
   ICORE  =        2    local potential                                                             
   LCOR   =        T    correct aug charges                                                         
   LPAW   =        T    paw PP                                                                      
   EAUG   =  605.392                                                                                
   DEXC   =    0.000                                                                                
   RMAX   =    1.553    core radius for proj-oper                                                   
   RAUG   =    1.300    factor for augmentation sphere                                              
   RDEP   =    1.550    radius for radial grids                                                     
   RDEPT  =    1.329    core radius for aug-charge                                                  
                                                                                                    
   Atomic configuration                                                                             
    4 entries                                                                                       
     n  l   j            E        occ.                                                              
     1  0  0.50      -514.6923   2.0000                                                             
     2  0  0.50       -23.9615   2.0000                                                             
     2  1  0.50        -9.0305   4.0000                                                             
     3  2  1.50        -9.5241   0.0000                                                             
   Description                                                                                      
     l       E           TYP  RCUT    TYP  RCUT                                                     
     0    -23.9615318     23  1.200                                                                 
     0     -9.5240782     23  1.200                                                                 
     1     -9.0304911     23  1.520                                                                 
     1      8.1634956     23  1.520                                                                 
     2     -9.5240782      7  1.500                                                                 
  local pseudopotential read in
  partial core-charges read in
  partial kinetic energy density read in
  kinetic energy density of atom read in
  atomic valenz-charges read in
  non local Contribution for L=            0  read in
    real space projection operators read in
  non local Contribution for L=            0  read in
    real space projection operators read in
  non local Contribution for L=            1  read in
    real space projection operators read in
  non local Contribution for L=            1  read in
    real space projection operators read in
    PAW grid and wavefunctions read in
 
   number of l-projection  operators is LMAX  =            4
   number of lm-projection operators is LMMAX =            8
 
 -----------------------------------------------------------------------------
|                                                                             |
|               ----> ADVICE to this user running VASP <----                  |
|                                                                             |
|     You enforced a specific xc type in the INCAR file but a different       |
|     type was found in the POTCAR file.                                      |
|     I HOPE YOU KNOW WHAT YOU ARE DOING!                                     |
|                                                                             |
 -----------------------------------------------------------------------------

  PAW_PBE C 08Apr2002                   :
 energy of atom  1       EATOM= -147.1560
 kinetic energy error for atom=    0.0116 (will be added to EATOM!!)
  PAW_PBE O 08Apr2002                   :
 energy of atom  2       EATOM= -432.3788
 kinetic energy error for atom=    0.0389 (will be added to EATOM!!)
 
 
 POSCAR: CO molecule in vacuum
  positions in cartesian coordinates
  No initial velocities read in


 exchange-correlation table for RP
   RHO(1)=    0.500       N(1)  =     2000
   RHO(2)=  100.500       N(2)  =     4000
 


--------------------------------------------------------------------------------------------------------


 ion  position               nearest neighbor table
   1  0.500  0.500  0.500-   2 1.14
   2  0.500  0.500  0.576-   1 1.14
 
  LATTYP: Found a simple cubic cell.
 ALAT       =    15.0000000000
  
  Lattice vectors:
  
 A1 = (  15.0000000000,   0.0000000000,   0.0000000000)
 A2 = (   0.0000000000,  15.0000000000,   0.0000000000)
 A3 = (   0.0000000000,   0.0000000000,  15.0000000000)


Analysis of symmetry for initial positions (statically):
=====================================================================
 Subroutine PRICEL returns:
 Original cell was already a primitive cell.
 

 Routine SETGRP: Setting up the symmetry group for a 
 simple cubic supercell.


 Subroutine GETGRP returns: Found  8 space group operations
 (whereof  8 operations were pure point group operations)
 out of a pool of 48 trial point group operations.


The static configuration has the point symmetry C_4v.


Analysis of symmetry for dynamics (positions and initial velocities):
=====================================================================
 Subroutine PRICEL returns:
 Original cell was already a primitive cell.
 

 Routine SETGRP: Setting up the symmetry group for a 
 simple cubic supercell.


 Subroutine GETGRP returns: Found  8 space group operations
 (whereof  8 operations were pure point group operations)
 out of a pool of 48 trial point group operations.


The dynamic configuration has the point symmetry C_4v.


 Subroutine INISYM returns: Found  8 space group operations
 (whereof  8 operations are pure point group operations),
 and found     1 'primitive' translations


----------------------------------------------------------------------------------------

                                     Primitive cell                                     

  volume of cell :    3375.0000

  direct lattice vectors                    reciprocal lattice vectors
    15.000000000  0.000000000  0.000000000     0.066666667  0.000000000  0.000000000
     0.000000000 15.000000000  0.000000000     0.000000000  0.066666667  0.000000000
     0.000000000  0.000000000 15.000000000     0.000000000  0.000000000  0.066666667

  length of vectors
    15.000000000 15.000000000 15.000000000     0.066666667  0.066666667  0.066666667

  position of ions in fractional coordinates (direct lattice)
     0.500000000  0.500000000  0.500000000
     0.500000000  0.500000000  0.576200000

  ion indices of the primitive-cell ions
   primitive index   ion index
                 1           1
                 2           2

----------------------------------------------------------------------------------------

 
 
 KPOINTS: Gamma only                              

Automatic generation of k-mesh.
 Grid dimensions read from file:
 generate k-points for:    1    1    1

 Generating k-lattice:

  Cartesian coordinates                     Fractional coordinates (reciprocal lattice)
     0.066666667  0.000000000  0.000000000     1.000000000  0.000000000  0.000000000
     0.000000000  0.066666667  0.000000000     0.000000000  1.000000000  0.000000000
     0.000000000  0.000000000  0.066666667     0.000000000  0.000000000  1.000000000

  Length of vectors
     0.066666667  0.066666667  0.066666667

  Shift w.r.t. Gamma in fractional coordinates (k-lattice)
     0.000000000  0.000000000  0.000000000

 
 Subroutine IBZKPT returns following result:
 ===========================================
 
 Found      1 irreducible k-points:
 
 Following reciprocal coordinates:
            Coordinates               Weight
  0.000000  0.000000  0.000000      1.000000
 
 Following cartesian coordinates:
            Coordinates               Weight
  0.000000  0.000000  0.000000      1.000000
 


--------------------------------------------------------------------------------------------------------




 Dimension of arrays:
   k-points           NKPTS =      1   k-points in BZ     NKDIM =      1   number of bands    NBANDS=      9
   number of dos      NEDOS =    301   number of ions     NIONS =      2
   non local maximal  LDIM  =      4   non local SUM 2l+1 LMDIM =      8
   total plane-waves  NPLWV = 512000
   max r-space proj   IRMAX =      1   max aug-charges    IRDMAX=   2167
   dimension x,y,z NGX =    80 NGY =   80 NGZ =   80
   dimension x,y,z NGXF=   160 NGYF=  160 NGZF=  160
   support grid    NGXF=   160 NGYF=  160 NGZF=  160
   ions per type =               1   1
   NGX,Y,Z   is equivalent  to a cutoff of   8.87,  8.87,  8.87 a.u.
   NGXF,Y,Z  is equivalent  to a cutoff of  17.73, 17.73, 17.73 a.u.

 SYSTEM =  CO molecule in vacuum                   
 POSCAR =  CO molecule in vacuum                   

 Startparameter for this run:
   NWRITE =      2    write-flag & timer
   PREC   = normal    normal or accurate (medium, high low for compatibility)
   ISTART =      0    job   : 0-new  1-cont  2-samecut
   ICHARG =      2    charge: 1-file 2-atom 10-const
   ISPIN  =      1    spin polarized calculation?
   LNONCOLLINEAR =      F non collinear calculations
   LSORBIT =      F    spin-orbit coupling
   INIWAV =      1    electr: 0-lowe 1-rand  2-diag
   LASPH  =      F    aspherical Exc in radial PAW
 Electronic Relaxation 1
   ENCUT  =  450.0 eV  33.07 Ry    5.75 a.u.  25.95 25.95 25.95*2*pi/ulx,y,z
   ENINI  =  450.0     initial cutoff
   ENAUG  =  644.9 eV  augmentation charge cutoff
   NELM   =     60;   NELMIN=  2; NELMDL= -5     # of ELM steps 
   EDIFF  = 0.1E-05   stopping-criterion for ELM
   LREAL  =      F    real-space projection
   NLSPLINE    = F    spline interpolate recip. space projectors
   LCOMPAT=      F    compatible to vasp.4.4
   GGA_COMPAT  = T    GGA compatible to vasp.4.4-vasp.4.6
   LMAXPAW     = -100 max onsite density
   LMAXMIX     =    2 max onsite mixed and CHGCAR
   VOSKOWN=      0    Vosko Wilk Nusair interpolation
   ROPT   =    0.00000   0.00000
 Ionic relaxation
   EDIFFG = -.1E-01   stopping-criterion for IOM
   NSW    =     50    number of steps for IOM
   NBLOCK =      1;   KBLOCK =     50    inner block; outer block 
   IBRION =      2    ionic relax: 0-MD 1-quasi-New 2-CG
   NFREE  =      1    steps in history (QN), initial steepest desc. (CG)
   ISIF   =      2    stress and relaxation
   IWAVPR =     11    prediction:  0-non 1-charg 2-wave 3-comb
   ISYM   =      2    0-nonsym 1-usesym 2-fastsym
   LCORR  =      T    Harris-Foulkes like correction to forces

   POTIM  = 0.5000    time-step for ionic-motion
   TEIN   =    0.0    initial temperature
   TEBEG  =    0.0;   TEEND  =   0.0 temperature during run
   SMASS  =  -3.00    Nose mass-parameter (am)
   estimated Nose-frequenzy (Omega)   =  0.10E-29 period in steps = 0.13E+47 mass=  -0.514E-26a.u.
   SCALEE = 1.0000    scale energy and forces
   NPACO  =    256;   APACO  = 10.0  distance and # of slots for P.C.
   PSTRESS=    0.0 pullay stress

  Mass of Ions in am
   POMASS =  12.01 16.00
  Ionic Valenz
   ZVAL   =   4.00  6.00
  Atomic Wigner-Seitz radii
   RWIGS  =  -1.00 -1.00
  virtual crystal weights 
   VCA    =   1.00  1.00
   NELECT =      10.0000    total number of electrons
   NUPDOWN=      -1.0000    fix difference up-down

 DOS related values:
   EMIN   =  10.00;   EMAX   =-10.00  energy-range for DOS
   EFERMI =   0.00;   METHOD = LEGACY      
   ISMEAR =     0;   SIGMA  =   0.01  broadening in eV -4-tet -1-fermi 0-gaus
   EFERMI_NEDOS =   21; number of points for ismear=-14 and -15

 Electronic relaxation 2 (details)
   IALGO  =     38    algorithm
   LDIAG  =      T    sub-space diagonalisation (order eigenvalues)
   LSUBROT=      F    optimize rotation matrix (better conditioning)
   LROBUST=      F    robust break criterion during scf (extrapolated energy error)
   ISEARCH=      0    line search for conjugate gradient (0, 1=use gradient)
   TURBO    =      0    0=normal 1=particle mesh
   IRESTART =      0    0=no restart 2=restart with 2 vectors
   NREBOOT  =      0    no. of reboots
   NMIN     =      0    reboot dimension
   EREF     =   0.00    reference energy to select bands
   IMIX   =      4    mixing-type and parameters
     AMIX     =   0.40;   BMIX     =  1.00
     AMIX_MAG =   1.60;   BMIX_MAG =  1.00
     AMIN     =   0.10
     WC   =   100.;   INIMIX=   1;  MIXPRE=   1;  MAXMIX= -45

 Intra band minimization:
   WEIMIN = 0.0010     energy-eigenvalue tresh-hold
   EBREAK =  0.28E-07  absolut break condition
   DEPER  =   0.30     relativ break condition  

   TIME   =   0.40     timestep for ELM

  volume/ion in A,a.u.               =    1687.50     11387.81
  Fermi-wavevector in a.u.,A,eV,Ry     =   0.235135  0.444340  0.752244  0.055288
  Thomas-Fermi vector in A             =   1.033980
 
 Write flags
   LWAVE        =      F    write WAVECAR
   LDOWNSAMPLE  =      F    k-point downsampling of WAVECAR
   LCHARG       =      F    write CHGCAR
   LVTOT        =      F    write LOCPOT, total local potential
   LVHAR        =      F    write LOCPOT, Hartree potential only
   WRT_POTENTIAL= false  ! write potential to hdf5 file
   LELF         =      F    write electronic localiz. function (ELF)
   LORBIT       =      0    0 simple, 1 ext, 2 COOP (PROOUT), +10 PAW based schemes


 Python interface
   PLUGINS active      =      F    recompile with -DPLUGINS to activate
 
 Dipole corrections
   LMONO      =      F    monopole corrections only (constant potential shift)
   LDIPOL     =      F    correct potential (dipole corrections)
   IDIPOL     =      0    1-x, 2-y, 3-z, 4-all directions 
   EPSILON    =  1.0000000 bulk dielectric constant
   LVACPOTAV  =      F  vacuum potentials using an averaging scheme for the charge density
   VACPOTFLAT =  0.1000000 required flatness to determine vacuum potential
 
Coulomb truncation method
  LTRUNCATE          =      F  Coulomb kernel truncation to be used

 
 Exchange correlation treatment:
   GGA     = RP    functional components
   XC_C    = 1    coefficients multiplying the functional components
   LIBXC   =     F    Libxc                    
   VOSKOWN =     0    Vosko Wilk Nusair interpolation
   LHFCALC =     F    Hartree Fock is set to
   LHFONE  =     F    Hartree Fock one center treatment
   AEXX    =    0.0000 exact exchange contribution

 Parameters of functionals:
   RP:
     No parameter
 
 Van der Waals corrections
   IVDW    =     0    specifies the selected vdW correction

 Linear response parameters
   LEPSILON=     F    determine dielectric tensor
   LRPA    =     F    only Hartree local field effects (RPA)
   LNABLA  =     F    use nabla operator in PAW spheres
   LVEL    =     F    velocity operator in full k-point grid
   CSHIFT  =0.1000    complex shift for real part using Kramers Kronig
   OMEGAMAX=  -1.0    maximum frequency
   DEG_THRESHOLD= 0.2000000E-02 threshold for treating states as degnerate
   RTIME   =   -0.100 relaxation time in fs
  (WPLASMAI=    0.000 imaginary part of plasma frequency in eV, 0.658/RTIME)
   DFIELD  = 0.0000000 0.0000000 0.0000000 field for delta impulse in time
 
  Optional k-point grid parameters
   LKPOINTS_OPT  =     F    use optional k-point grid
   KPOINTS_OPT_MODE=     1    mode for optional k-point grid
 
 Orbital magnetization related:
   ORBITALMAG=     F  switch on orbital magnetization
   LCHIMAG   =     F  perturbation theory with respect to B field
   DQ        =  0.001000  dq finite difference perturbation B field
   LLRAUG    =     F  two centre corrections for induced B field
   LBONE     =     F  B-component reconstruction in AE one-centre
   LVGVCALC  =     T  calculate vGv susceptibility
   LVGVAPPL  =     F  apply vGv susceptibility instead of pGv for G=0

 Random number generation:
   RANDOM_GENERATOR = DEFAULT
   PCG_SEED         = not used


--------------------------------------------------------------------------------------------------------


 conjugate gradient relaxation of ions
 charge density and potential will be updated during run
 non-spin polarized calculation
 Variant of blocked Davidson
 Davidson routine will perform the subspace rotation
 perform sub-space diagonalisation
    after iterative eigenvector-optimisation
 modified Broyden-mixing scheme, WC =      100.0
 initial mixing is a Kerker type mixing with AMIX =  0.4000 and BMIX =      1.0000
 Hartree-type preconditioning will be used
 using additional bands             4
 reciprocal scheme for non local part
 use partial core corrections
 calculate Harris-corrections to forces 
   (improved forces if not selfconsistent)
 use gradient corrections 
 use of overlap-Matrix (Vanderbilt PP)
 Gauss-broadening in eV      SIGMA  =   0.01


--------------------------------------------------------------------------------------------------------


  energy-cutoff  :      450.00
  volume of cell :     3375.00
      direct lattice vectors                 reciprocal lattice vectors
    15.000000000  0.000000000  0.000000000     0.066666667  0.000000000  0.000000000
     0.000000000 15.000000000  0.000000000     0.000000000  0.066666667  0.000000000
     0.000000000  0.000000000 15.000000000     0.000000000  0.000000000  0.066666667

  length of vectors
    15.000000000 15.000000000 15.000000000     0.066666667  0.066666667  0.066666667


 
 k-points in units of 2pi/SCALE and weight: Gamma only                              
   0.00000000  0.00000000  0.00000000       1.000
 
 k-points in reciprocal lattice and weights: Gamma only                              
   0.00000000  0.00000000  0.00000000       1.000
 
 position of ions in fractional coordinates (direct lattice) 
   0.50000000  0.50000000  0.50000000
   0.50000000  0.50000000  0.57620000
 
 position of ions in cartesian coordinates  (Angst):
   7.50000000  7.50000000  7.50000000
   7.50000000  7.50000000  8.64300000
 


--------------------------------------------------------------------------------------------------------


 k-point     1 :   0.0000 0.0000 0.0000  plane waves:   72935

 maximum and minimum number of plane-waves per node :     72935    72935

 maximum number of plane-waves:     72935
 maximum index in each direction: 
   IXMAX=   25   IYMAX=   25   IZMAX=   25
   IXMIN=  -25   IYMIN=  -25   IZMIN=  -25


 serial   3D FFT for wavefunctions
 parallel 3D FFT for charge:
    minimum data exchange during FFTs selected (reduces bandwidth)


 total amount of memory used by VASP MPI-rank0   445285. kBytes
=======================================================================

   base                                    :      30000. kBytes
   nonl-proj                               :      11669. kBytes
   fftplans                                :     141100. kBytes
   grid                                    :     252006. kBytes
   one-center                              :          6. kBytes
   wavefun                                 :      10504. kBytes
 
     INWAV:  cpu time      0.0000: real time      0.0001
 Broyden mixing: mesh for mixing (old mesh)
   NGX = 51   NGY = 51   NGZ = 51
  (NGX  =160   NGY  =160   NGZ  =160)
  gives a total of 132651 points

 initial charge density was supplied:
 charge density of overlapping atoms calculated
 number of electron      10.0000000 magnetization 
 keeping initial charge density in first step


--------------------------------------------------------------------------------------------------------


 Maximum index for augmentation-charges          1907 (set IRDMAX)


--------------------------------------------------------------------------------------------------------


 First call to EWALD:  gamma=   0.118
 Maximum number of real-space cells   3x   3x   3
 Maximum number of reciprocal cells   3x   3x   3

    FEWALD:  cpu time      0.0007: real time      0.0007


--------------------------------------- Ionic step        1  -------------------------------------------




--------------------------------------- Iteration      1(   1)  ---------------------------------------


    POTLOK:  cpu time      0.0373: real time      0.0374
    SETDIJ:  cpu time      0.0012: real time      0.0012
     EDDAV:  cpu time      0.1601: real time      0.1604
       DOS:  cpu time      0.0001: real time      0.0001
    --------------------------------------------
      LOOP:  cpu time      0.1987: real time      0.1991

 eigenvalue-minimisations  :    34
 total energy-change (2. order) : 0.5758287E+02  (-0.2152407E+03)
 number of electron      10.0000000 magnetization 
 augmentation part       10.0000000 magnetization 

 Free energy of the ion-electron system (eV)
  ---------------------------------------------------
  alpha Z        PSCENC =         0.12946890
  Ewald energy   TEWEN  =       166.45206973
  -Hartree energ DENC   =      -626.42524156
  -exchange      EXHF   =         0.00000000
  -V(xc)+E(xc)   XCENC  =        38.76391617
  PAW double counting   =       455.60883210     -457.68791433
  entropy T*S    EENTRO =        -0.00000000
  eigenvalues    EBANDS =       -98.78613411
  atomic energy  EATOM  =       579.52787388
  Solvation  Ediel_sol  =         0.00000000
  ---------------------------------------------------
  free energy    TOTEN  =        57.58287078 eV

  energy without entropy =       57.58287078  energy(sigma->0) =       57.58287078


--------------------------------------------------------------------------------------------------------




--------------------------------------- Iteration      1(   2)  ---------------------------------------


     EDDAV:  cpu time      0.0296: real time      0.0304
       DOS:  cpu time      0.0000: real time      0.0000
    --------------------------------------------
      LOOP:  cpu time      0.0297: real time      0.0305

 eigenvalue-minimisations  :    26
 total energy-change (2. order) :-0.6531216E+02  (-0.6530455E+02)
 number of electron      10.0000000 magnetization 
 augmentation part       10.0000000 magnetization 

 Free energy of the ion-electron system (eV)
  ---------------------------------------------------
  alpha Z        PSCENC =         0.12946890
  Ewald energy   TEWEN  =       166.45206973
  -Hartree energ DENC   =      -626.42524156
  -exchange      EXHF   =         0.00000000
  -V(xc)+E(xc)   XCENC  =        38.76391617
  PAW double counting   =       455.60883210     -457.68791433
  entropy T*S    EENTRO =        -0.00000000
  eigenvalues    EBANDS =      -164.09829037
  atomic energy  EATOM  =       579.52787388
  Solvation  Ediel_sol  =         0.00000000
  ---------------------------------------------------
  free energy    TOTEN  =        -7.72928549 eV

  energy without entropy =       -7.72928549  energy(sigma->0) =       -7.72928549


--------------------------------------------------------------------------------------------------------




--------------------------------------- Iteration      1(   3)  ---------------------------------------


     EDDAV:  cpu time      0.0250: real time      0.0251
       DOS:  cpu time      0.0000: real time      0.0000
    --------------------------------------------
      LOOP:  cpu time      0.0250: real time      0.0251

 eigenvalue-minimisations  :    20
 total energy-change (2. order) :-0.7305146E+01  (-0.7299814E+01)
 number of electron      10.0000000 magnetization 
 augmentation part       10.0000000 magnetization 

 Free energy of the ion-electron system (eV)
  ---------------------------------------------------
  alpha Z        PSCENC =         0.12946890
  Ewald energy   TEWEN  =       166.45206973
  -Hartree energ DENC   =      -626.42524156
  -exchange      EXHF   =         0.00000000
  -V(xc)+E(xc)   XCENC  =        38.76391617
  PAW double counting   =       455.60883210     -457.68791433
  entropy T*S    EENTRO =        -0.00000000
  eigenvalues    EBANDS =      -171.40343673
  atomic energy  EATOM  =       579.52787388
  Solvation  Ediel_sol  =         0.00000000
  ---------------------------------------------------
  free energy    TOTEN  =       -15.03443185 eV

  energy without entropy =      -15.03443185  energy(sigma->0) =      -15.03443185


--------------------------------------------------------------------------------------------------------




--------------------------------------- Iteration      1(   4)  ---------------------------------------


     EDDAV:  cpu time      0.0382: real time      0.0384
       DOS:  cpu time      0.0000: real time      0.0000
    --------------------------------------------
      LOOP:  cpu time      0.0382: real time      0.0385

 eigenvalue-minimisations  :    34
 total energy-change (2. order) :-0.1934515E+00  (-0.1934458E+00)
 number of electron      10.0000000 magnetization 
 augmentation part       10.0000000 magnetization 

 Free energy of the ion-electron system (eV)
  ---------------------------------------------------
  alpha Z        PSCENC =         0.12946890
  Ewald energy   TEWEN  =       166.45206973
  -Hartree energ DENC   =      -626.42524156
  -exchange      EXHF   =         0.00000000
  -V(xc)+E(xc)   XCENC  =        38.76391617
  PAW double counting   =       455.60883210     -457.68791433
  entropy T*S    EENTRO =        -0.00000000
  eigenvalues    EBANDS =      -171.59688826
  atomic energy  EATOM  =       579.52787388
  Solvation  Ediel_sol  =         0.00000000
  ---------------------------------------------------
  free energy    TOTEN  =       -15.22788338 eV

  energy without entropy =      -15.22788338  energy(sigma->0) =      -15.22788338


--------------------------------------------------------------------------------------------------------




--------------------------------------- Iteration      1(   5)  ---------------------------------------


     EDDAV:  cpu time      0.0315: real time      0.0322
       DOS:  cpu time      0.0000: real time      0.0000
    CHARGE:  cpu time      0.0771: real time      0.0772
    MIXING:  cpu time      0.0555: real time      0.0556
    --------------------------------------------
      LOOP:  cpu time      0.1642: real time      0.1651

 eigenvalue-minimisations  :    28
 total energy-change (2. order) :-0.2133202E-03  (-0.2133197E-03)
 number of electron       9.9999951 magnetization 
 augmentation part        0.7240443 magnetization 

 Broyden mixing:
  rms(total) = 0.70288E+00    rms(broyden)= 0.70178E+00
  rms(prec ) = 0.76288E+00
  weight for this iteration     100.00

 Free energy of the ion-electron system (eV)
  ---------------------------------------------------
  alpha Z        PSCENC =         0.12946890
  Ewald energy   TEWEN  =       166.45206973
  -Hartree energ DENC   =      -626.42524156
  -exchange      EXHF   =         0.00000000
  -V(xc)+E(xc)   XCENC  =        38.76391617
  PAW double counting   =       455.60883210     -457.68791433
  entropy T*S    EENTRO =        -0.00000000
  eigenvalues    EBANDS =      -171.59710158
  atomic energy  EATOM  =       579.52787388
  Solvation  Ediel_sol  =         0.00000000
  ---------------------------------------------------
  free energy    TOTEN  =       -15.22809670 eV

  energy without entropy =      -15.22809670  energy(sigma->0) =      -15.22809670


--------------------------------------------------------------------------------------------------------




--------------------------------------- Iteration      1(   6)  ---------------------------------------


    POTLOK:  cpu time      0.0216: real time      0.0217
    SETDIJ:  cpu time      0.0012: real time      0.0012
     EDDAV:  cpu time      0.0240: real time      0.0241
       DOS:  cpu time      0.0000: real time      0.0000
    CHARGE:  cpu time      0.0586: real time      0.0587
    MIXING:  cpu time      0.0571: real time      0.0572
    --------------------------------------------
      LOOP:  cpu time      0.1626: real time      0.1631

 eigenvalue-minimisations  :    19
 total energy-change (2. order) : 0.6456142E+00  (-0.3640197E+00)
 number of electron       9.9999960 magnetization 
 augmentation part        0.6424496 magnetization 

 Broyden mixing:
  rms(total) = 0.37994E+00    rms(broyden)= 0.37962E+00
  rms(prec ) = 0.40496E+00
  weight for this iteration     100.00

 eigenvalues of (default mixing * dielectric matrix)
  average eigenvalue GAMMA=   1.0788
  1.0788

 Free energy of the ion-electron system (eV)
  ---------------------------------------------------
  alpha Z        PSCENC =         0.12946890
  Ewald energy   TEWEN  =       166.45206973
  -Hartree energ DENC   =      -640.51984183
  -exchange      EXHF   =         0.00000000
  -V(xc)+E(xc)   XCENC  =        39.57639445
  PAW double counting   =       605.00310076     -607.20064817
  entropy T*S    EENTRO =        -0.00000000
  eigenvalues    EBANDS =      -157.55090024
  atomic energy  EATOM  =       579.52787388
  Solvation  Ediel_sol  =         0.00000000
  ---------------------------------------------------
  free energy    TOTEN  =       -14.58248252 eV

  energy without entropy =      -14.58248252  energy(sigma->0) =      -14.58248252


--------------------------------------------------------------------------------------------------------




--------------------------------------- Iteration      1(   7)  ---------------------------------------


    POTLOK:  cpu time      0.0217: real time      0.0228
    SETDIJ:  cpu time      0.0012: real time      0.0012
     EDDAV:  cpu time      0.0232: real time      0.0232
       DOS:  cpu time      0.0000: real time      0.0000
    CHARGE:  cpu time      0.0576: real time      0.0577
    MIXING:  cpu time      0.0567: real time      0.0568
    --------------------------------------------
      LOOP:  cpu time      0.1604: real time      0.1618

 eigenvalue-minimisations  :    18
 total energy-change (2. order) : 0.1289060E+00  (-0.7232278E-01)
 number of electron       9.9999957 magnetization 
 augmentation part        0.6650103 magnetization 

 Broyden mixing:
  rms(total) = 0.19547E+00    rms(broyden)= 0.19546E+00
  rms(prec ) = 0.20713E+00
  weight for this iteration     100.00

 eigenvalues of (default mixing * dielectric matrix)
  average eigenvalue GAMMA=   1.4744
  0.7602  2.1886

 Free energy of the ion-electron system (eV)
  ---------------------------------------------------
  alpha Z        PSCENC =         0.12946890
  Ewald energy   TEWEN  =       166.45206973
  -Hartree energ DENC   =      -642.39407048
  -exchange      EXHF   =         0.00000000
  -V(xc)+E(xc)   XCENC  =        39.70702035
  PAW double counting   =       708.85375026     -710.99876800
  entropy T*S    EENTRO =        -0.00000000
  eigenvalues    EBANDS =      -155.73092117
  atomic energy  EATOM  =       579.52787388
  Solvation  Ediel_sol  =         0.00000000
  ---------------------------------------------------
  free energy    TOTEN  =       -14.45357653 eV

  energy without entropy =      -14.45357653  energy(sigma->0) =      -14.45357653


--------------------------------------------------------------------------------------------------------




--------------------------------------- Iteration      1(   8)  ---------------------------------------


    POTLOK:  cpu time      0.0215: real time      0.0217
    SETDIJ:  cpu time      0.0012: real time      0.0012
     EDDAV:  cpu time      0.0231: real time      0.0231
       DOS:  cpu time      0.0000: real time      0.0000
    CHARGE:  cpu time      0.0608: real time      0.0609
    MIXING:  cpu time      0.0571: real time      0.0572
    --------------------------------------------
      LOOP:  cpu time      0.1637: real time      0.1642

 eigenvalue-minimisations  :    18
 total energy-change (2. order) : 0.3263059E-01  (-0.1654601E-01)
 number of electron       9.9999958 magnetization 
 augmentation part        0.6536559 magnetization 

 Broyden mixing:
  rms(total) = 0.50333E-01    rms(broyden)= 0.50313E-01
  rms(prec ) = 0.53399E-01
  weight for this iteration     100.00

 eigenvalues of (default mixing * dielectric matrix)
  average eigenvalue GAMMA=   1.5609
  2.5132  1.4244  0.7451

 Free energy of the ion-electron system (eV)
  ---------------------------------------------------
  alpha Z        PSCENC =         0.12946890
  Ewald energy   TEWEN  =       166.45206973
  -Hartree energ DENC   =      -647.14602151
  -exchange      EXHF   =         0.00000000
  -V(xc)+E(xc)   XCENC  =        39.99442464
  PAW double counting   =       846.81119233     -848.94437805
  entropy T*S    EENTRO =        -0.00000000
  eigenvalues    EBANDS =      -151.24557586
  atomic energy  EATOM  =       579.52787388
  Solvation  Ediel_sol  =         0.00000000
  ---------------------------------------------------
  free energy    TOTEN  =       -14.42094594 eV

  energy without entropy =      -14.42094594  energy(sigma->0) =      -14.42094594


--------------------------------------------------------------------------------------------------------




--------------------------------------- Iteration      1(   9)  ---------------------------------------


    POTLOK:  cpu time      0.0221: real time      0.0223
    SETDIJ:  cpu time      0.0012: real time      0.0012
     EDDAV:  cpu time      0.0251: real time      0.0251
       DOS:  cpu time      0.0000: real time      0.0000
    CHARGE:  cpu time      0.0590: real time      0.0591
    MIXING:  cpu time      0.0580: real time      0.0581
    --------------------------------------------
      LOOP:  cpu time      0.1653: real time      0.1658

 eigenvalue-minimisations  :    20
 total energy-change (2. order) : 0.2704562E-03  (-0.8752456E-03)
 number of electron       9.9999958 magnetization 
 augmentation part        0.6513930 magnetization 

 Broyden mixing:
  rms(total) = 0.12016E-01    rms(broyden)= 0.12005E-01
  rms(prec ) = 0.14617E-01
  weight for this iteration     100.00

 eigenvalues of (default mixing * dielectric matrix)
  average eigenvalue GAMMA=   1.4479
  2.3638  1.7388  0.7729  0.9159

 Free energy of the ion-electron system (eV)
  ---------------------------------------------------
  alpha Z        PSCENC =         0.12946890
  Ewald energy   TEWEN  =       166.45206973
  -Hartree energ DENC   =      -647.03906120
  -exchange      EXHF   =         0.00000000
  -V(xc)+E(xc)   XCENC  =        39.98696755
  PAW double counting   =       881.26760190     -883.38079506
  entropy T*S    EENTRO =        -0.00000000
  eigenvalues    EBANDS =      -151.36480118
  atomic energy  EATOM  =       579.52787388
  Solvation  Ediel_sol  =         0.00000000
  ---------------------------------------------------
  free energy    TOTEN  =       -14.42067549 eV

  energy without entropy =      -14.42067549  energy(sigma->0) =      -14.42067549


--------------------------------------------------------------------------------------------------------




--------------------------------------- Iteration      1(  10)  ---------------------------------------


    POTLOK:  cpu time      0.0216: real time      0.0218
    SETDIJ:  cpu time      0.0012: real time      0.0012
     EDDAV:  cpu time      0.0230: real time      0.0231
       DOS:  cpu time      0.0000: real time      0.0000
    CHARGE:  cpu time      0.0576: real time      0.0577
    MIXING:  cpu time      0.0585: real time      0.0586
    --------------------------------------------
      LOOP:  cpu time      0.1619: real time      0.1623

 eigenvalue-minimisations  :    18
 total energy-change (2. order) :-0.1041925E-02  (-0.1481991E-03)
 number of electron       9.9999958 magnetization 
 augmentation part        0.6527152 magnetization 

 Broyden mixing:
  rms(total) = 0.37305E-02    rms(broyden)= 0.37270E-02
  rms(prec ) = 0.63051E-02
  weight for this iteration     100.00

 eigenvalues of (default mixing * dielectric matrix)
  average eigenvalue GAMMA=   1.6021
  0.7672  0.9526  2.4089  2.0913  1.7904

 Free energy of the ion-electron system (eV)
  ---------------------------------------------------
  alpha Z        PSCENC =         0.12946890
  Ewald energy   TEWEN  =       166.45206973
  -Hartree energ DENC   =      -646.81065062
  -exchange      EXHF   =         0.00000000
  -V(xc)+E(xc)   XCENC  =        39.96955179
  PAW double counting   =       878.57400056     -880.68024277
  entropy T*S    EENTRO =        -0.00000000
  eigenvalues    EBANDS =      -151.58378888
  atomic energy  EATOM  =       579.52787388
  Solvation  Ediel_sol  =         0.00000000
  ---------------------------------------------------
  free energy    TOTEN  =       -14.42171741 eV

  energy without entropy =      -14.42171741  energy(sigma->0) =      -14.42171741


--------------------------------------------------------------------------------------------------------




--------------------------------------- Iteration      1(  11)  ---------------------------------------


    POTLOK:  cpu time      0.0216: real time      0.0218
    SETDIJ:  cpu time      0.0012: real time      0.0012
     EDDAV:  cpu time      0.0230: real time      0.0231
       DOS:  cpu time      0.0000: real time      0.0000
    CHARGE:  cpu time      0.0742: real time      0.0743
    MIXING:  cpu time      0.0603: real time      0.0604
    --------------------------------------------
      LOOP:  cpu time      0.1803: real time      0.1808

 eigenvalue-minimisations  :    18
 total energy-change (2. order) :-0.2063177E-02  (-0.4633356E-04)
 number of electron       9.9999958 magnetization 
 augmentation part        0.6529527 magnetization 

 Broyden mixing:
  rms(total) = 0.19021E-02    rms(broyden)= 0.18994E-02
  rms(prec ) = 0.34288E-02
  weight for this iteration     100.00

 eigenvalues of (default mixing * dielectric matrix)
  average eigenvalue GAMMA=   1.6414
  3.0287  2.4012  1.6199  0.7639  1.0392  0.9956

 Free energy of the ion-electron system (eV)
  ---------------------------------------------------
  alpha Z        PSCENC =         0.12946890
  Ewald energy   TEWEN  =       166.45206973
  -Hartree energ DENC   =      -647.08752699
  -exchange      EXHF   =         0.00000000
  -V(xc)+E(xc)   XCENC  =        39.97767415
  PAW double counting   =       877.74299061     -879.84383255
  entropy T*S    EENTRO =        -0.00000000
  eigenvalues    EBANDS =      -151.32249832
  atomic energy  EATOM  =       579.52787388
  Solvation  Ediel_sol  =         0.00000000
  ---------------------------------------------------
  free energy    TOTEN  =       -14.42378059 eV

  energy without entropy =      -14.42378059  energy(sigma->0) =      -14.42378059


--------------------------------------------------------------------------------------------------------




--------------------------------------- Iteration      1(  12)  ---------------------------------------


    POTLOK:  cpu time      0.0235: real time      0.0237
    SETDIJ:  cpu time      0.0012: real time      0.0012
     EDDAV:  cpu time      0.0230: real time      0.0231
       DOS:  cpu time      0.0000: real time      0.0000
    CHARGE:  cpu time      0.0675: real time      0.0676
    MIXING:  cpu time      0.0600: real time      0.0602
    --------------------------------------------
      LOOP:  cpu time      0.1753: real time      0.1759

 eigenvalue-minimisations  :    18
 total energy-change (2. order) :-0.8429348E-03  (-0.1398223E-04)
 number of electron       9.9999958 magnetization 
 augmentation part        0.6527574 magnetization 

 Broyden mixing:
  rms(total) = 0.94059E-03    rms(broyden)= 0.94045E-03
  rms(prec ) = 0.20468E-02
  weight for this iteration     100.00

 eigenvalues of (default mixing * dielectric matrix)
  average eigenvalue GAMMA=   1.8618
  3.8809  2.5128  2.1890  1.6963  0.7643  1.0208  0.9687

 Free energy of the ion-electron system (eV)
  ---------------------------------------------------
  alpha Z        PSCENC =         0.12946890
  Ewald energy   TEWEN  =       166.45206973
  -Hartree energ DENC   =      -647.19305027
  -exchange      EXHF   =         0.00000000
  -V(xc)+E(xc)   XCENC  =        39.97937801
  PAW double counting   =       877.42050024     -879.52047759
  entropy T*S    EENTRO =        -0.00000000
  eigenvalues    EBANDS =      -151.22038641
  atomic energy  EATOM  =       579.52787388
  Solvation  Ediel_sol  =         0.00000000
  ---------------------------------------------------
  free energy    TOTEN  =       -14.42462352 eV

  energy without entropy =      -14.42462352  energy(sigma->0) =      -14.42462352


--------------------------------------------------------------------------------------------------------




--------------------------------------- Iteration      1(  13)  ---------------------------------------


    POTLOK:  cpu time      0.0235: real time      0.0237
    SETDIJ:  cpu time      0.0012: real time      0.0012
     EDDAV:  cpu time      0.0240: real time      0.0241
       DOS:  cpu time      0.0000: real time      0.0000
    CHARGE:  cpu time      0.0680: real time      0.0682
    MIXING:  cpu time      0.0677: real time      0.0679
    --------------------------------------------
      LOOP:  cpu time      0.1845: real time      0.1850

 eigenvalue-minimisations  :    19
 total energy-change (2. order) :-0.8663054E-03  (-0.2280831E-04)
 number of electron       9.9999958 magnetization 
 augmentation part        0.6526865 magnetization 

 Broyden mixing:
  rms(total) = 0.65225E-03    rms(broyden)= 0.65196E-03
  rms(prec ) = 0.10847E-02
  weight for this iteration     100.00

 eigenvalues of (default mixing * dielectric matrix)
  average eigenvalue GAMMA=   1.9589
  5.0055  2.7379  2.3886  1.6640  0.7649  0.9250  1.0925  1.0925

 Free energy of the ion-electron system (eV)
  ---------------------------------------------------
  alpha Z        PSCENC =         0.12946890
  Ewald energy   TEWEN  =       166.45206973
  -Hartree energ DENC   =      -647.31768457
  -exchange      EXHF   =         0.00000000
  -V(xc)+E(xc)   XCENC  =        39.98153044
  PAW double counting   =       877.42825870     -879.52990322
  entropy T*S    EENTRO =        -0.00000000
  eigenvalues    EBANDS =      -151.09710368
  atomic energy  EATOM  =       579.52787388
  Solvation  Ediel_sol  =         0.00000000
  ---------------------------------------------------
  free energy    TOTEN  =       -14.42548983 eV

  energy without entropy =      -14.42548983  energy(sigma->0) =      -14.42548983


--------------------------------------------------------------------------------------------------------




--------------------------------------- Iteration      1(  14)  ---------------------------------------


    POTLOK:  cpu time      0.0236: real time      0.0238
    SETDIJ:  cpu time      0.0012: real time      0.0012
     EDDAV:  cpu time      0.0251: real time      0.0252
       DOS:  cpu time      0.0001: real time      0.0001
    CHARGE:  cpu time      0.0675: real time      0.0677
    MIXING:  cpu time      0.0622: real time      0.0623
    --------------------------------------------
      LOOP:  cpu time      0.1797: real time      0.1802

 eigenvalue-minimisations  :    20
 total energy-change (2. order) :-0.3015046E-03  (-0.2696129E-05)
 number of electron       9.9999958 magnetization 
 augmentation part        0.6527458 magnetization 

 Broyden mixing:
  rms(total) = 0.35795E-03    rms(broyden)= 0.35768E-03
  rms(prec ) = 0.65780E-03
  weight for this iteration     100.00

 eigenvalues of (default mixing * dielectric matrix)
  average eigenvalue GAMMA=   2.1391
  5.8726  2.8714  2.7538  2.3831  1.6537  0.7649  1.0164  1.0164  0.9191

 Free energy of the ion-electron system (eV)
  ---------------------------------------------------
  alpha Z        PSCENC =         0.12946890
  Ewald energy   TEWEN  =       166.45206973
  -Hartree energ DENC   =      -647.33215387
  -exchange      EXHF   =         0.00000000
  -V(xc)+E(xc)   XCENC  =        39.98117383
  PAW double counting   =       877.50300688     -879.60489729
  entropy T*S    EENTRO =        -0.00000000
  eigenvalues    EBANDS =      -151.08233338
  atomic energy  EATOM  =       579.52787388
  Solvation  Ediel_sol  =         0.00000000
  ---------------------------------------------------
  free energy    TOTEN  =       -14.42579133 eV

  energy without entropy =      -14.42579133  energy(sigma->0) =      -14.42579133


--------------------------------------------------------------------------------------------------------




--------------------------------------- Iteration      1(  15)  ---------------------------------------


    POTLOK:  cpu time      0.0232: real time      0.0234
    SETDIJ:  cpu time      0.0012: real time      0.0012
     EDDAV:  cpu time      0.0250: real time      0.0251
       DOS:  cpu time      0.0000: real time      0.0000
    CHARGE:  cpu time      0.0671: real time      0.0673
    MIXING:  cpu time      0.0631: real time      0.0632
    --------------------------------------------
      LOOP:  cpu time      0.1797: real time      0.1801

 eigenvalue-minimisations  :    20
 total energy-change (2. order) :-0.3268974E-03  (-0.2682343E-05)
 number of electron       9.9999958 magnetization 
 augmentation part        0.6527726 magnetization 

 Broyden mixing:
  rms(total) = 0.37431E-03    rms(broyden)= 0.37423E-03
  rms(prec ) = 0.45506E-03
  weight for this iteration     100.00

 eigenvalues of (default mixing * dielectric matrix)
  average eigenvalue GAMMA=   2.2491
  6.8246  3.8968  2.5224  2.4263  1.7171  1.3568  0.7648  1.1055  0.9386  0.9386

 Free energy of the ion-electron system (eV)
  ---------------------------------------------------
  alpha Z        PSCENC =         0.12946890
  Ewald energy   TEWEN  =       166.45206973
  -Hartree energ DENC   =      -647.33084830
  -exchange      EXHF   =         0.00000000
  -V(xc)+E(xc)   XCENC  =        39.98010270
  PAW double counting   =       877.34939599     -879.45066111
  entropy T*S    EENTRO =        -0.00000000
  eigenvalues    EBANDS =      -151.08352002
  atomic energy  EATOM  =       579.52787388
  Solvation  Ediel_sol  =         0.00000000
  ---------------------------------------------------
  free energy    TOTEN  =       -14.42611823 eV

  energy without entropy =      -14.42611823  energy(sigma->0) =      -14.42611823


--------------------------------------------------------------------------------------------------------




--------------------------------------- Iteration      1(  16)  ---------------------------------------


    POTLOK:  cpu time      0.0236: real time      0.0237
    SETDIJ:  cpu time      0.0012: real time      0.0012
     EDDAV:  cpu time      0.0230: real time      0.0231
       DOS:  cpu time      0.0000: real time      0.0000
    CHARGE:  cpu time      0.0679: real time      0.0680
    MIXING:  cpu time      0.0642: real time      0.0643
    --------------------------------------------
      LOOP:  cpu time      0.1799: real time      0.1803

 eigenvalue-minimisations  :    18
 total energy-change (2. order) :-0.8191283E-04  (-0.4843262E-06)
 number of electron       9.9999958 magnetization 
 augmentation part        0.6527239 magnetization 

 Broyden mixing:
  rms(total) = 0.16409E-03    rms(broyden)= 0.16388E-03
  rms(prec ) = 0.21344E-03
  weight for this iteration     100.00

 eigenvalues of (default mixing * dielectric matrix)
  average eigenvalue GAMMA=   2.3783
  7.8891  4.4560  2.8441  2.4149  2.1122  1.6896  0.7648  1.0512  1.0512  0.9443
  0.9443

 Free energy of the ion-electron system (eV)
  ---------------------------------------------------
  alpha Z        PSCENC =         0.12946890
  Ewald energy   TEWEN  =       166.45206973
  -Hartree energ DENC   =      -647.33539049
  -exchange      EXHF   =         0.00000000
  -V(xc)+E(xc)   XCENC  =        39.98018076
  PAW double counting   =       877.35968207     -879.46109635
  entropy T*S    EENTRO =        -0.00000000
  eigenvalues    EBANDS =      -151.07898863
  atomic energy  EATOM  =       579.52787388
  Solvation  Ediel_sol  =         0.00000000
  ---------------------------------------------------
  free energy    TOTEN  =       -14.42620014 eV

  energy without entropy =      -14.42620014  energy(sigma->0) =      -14.42620014


--------------------------------------------------------------------------------------------------------




--------------------------------------- Iteration      1(  17)  ---------------------------------------


    POTLOK:  cpu time      0.0235: real time      0.0240
    SETDIJ:  cpu time      0.0012: real time      0.0012
     EDDAV:  cpu time      0.0239: real time      0.0240
       DOS:  cpu time      0.0000: real time      0.0000
    CHARGE:  cpu time      0.0670: real time      0.0671
    MIXING:  cpu time      0.0651: real time      0.0653
    --------------------------------------------
      LOOP:  cpu time      0.1807: real time      0.1816

 eigenvalue-minimisations  :    19
 total energy-change (2. order) :-0.4737372E-04  (-0.1682048E-06)
 number of electron       9.9999958 magnetization 
 augmentation part        0.6527324 magnetization 

 Broyden mixing:
  rms(total) = 0.91156E-04    rms(broyden)= 0.91129E-04
  rms(prec ) = 0.11293E-03
  weight for this iteration     100.00

 eigenvalues of (default mixing * dielectric matrix)
  average eigenvalue GAMMA=   2.3737
  8.2529  4.8429  2.9264  2.4487  2.3766  1.6628  0.7648  1.1806  1.1806  0.9719
  0.9380  0.9380

 Free energy of the ion-electron system (eV)
  ---------------------------------------------------
  alpha Z        PSCENC =         0.12946890
  Ewald energy   TEWEN  =       166.45206973
  -Hartree energ DENC   =      -647.32922046
  -exchange      EXHF   =         0.00000000
  -V(xc)+E(xc)   XCENC  =        39.97976461
  PAW double counting   =       877.42428774     -879.52559771
  entropy T*S    EENTRO =        -0.00000000
  eigenvalues    EBANDS =      -151.08489421
  atomic energy  EATOM  =       579.52787388
  Solvation  Ediel_sol  =         0.00000000
  ---------------------------------------------------
  free energy    TOTEN  =       -14.42624752 eV

  energy without entropy =      -14.42624752  energy(sigma->0) =      -14.42624752


--------------------------------------------------------------------------------------------------------




--------------------------------------- Iteration      1(  18)  ---------------------------------------


    POTLOK:  cpu time      0.0234: real time      0.0236
    SETDIJ:  cpu time      0.0012: real time      0.0012
     EDDAV:  cpu time      0.0240: real time      0.0241
       DOS:  cpu time      0.0000: real time      0.0000
    CHARGE:  cpu time      0.0670: real time      0.0671
    MIXING:  cpu time      0.0664: real time      0.0665
    --------------------------------------------
      LOOP:  cpu time      0.1821: real time      0.1825

 eigenvalue-minimisations  :    19
 total energy-change (2. order) :-0.1196367E-04  (-0.1967647E-07)
 number of electron       9.9999958 magnetization 
 augmentation part        0.6527318 magnetization 

 Broyden mixing:
  rms(total) = 0.56952E-04    rms(broyden)= 0.56949E-04
  rms(prec ) = 0.67288E-04
  weight for this iteration     100.00

 eigenvalues of (default mixing * dielectric matrix)
  average eigenvalue GAMMA=   2.5111
  9.1175  5.3099  3.6204  2.6632  2.4393  2.1444  1.6625  0.7648  1.0551  1.0013
  1.0013  0.9325  0.9325

 Free energy of the ion-electron system (eV)
  ---------------------------------------------------
  alpha Z        PSCENC =         0.12946890
  Ewald energy   TEWEN  =       166.45206973
  -Hartree energ DENC   =      -647.33159910
  -exchange      EXHF   =         0.00000000
  -V(xc)+E(xc)   XCENC  =        39.97988392
  PAW double counting   =       877.41736999     -879.51875705
  entropy T*S    EENTRO =        -0.00000000
  eigenvalues    EBANDS =      -151.08256974
  atomic energy  EATOM  =       579.52787388
  Solvation  Ediel_sol  =         0.00000000
  ---------------------------------------------------
  free energy    TOTEN  =       -14.42625948 eV

  energy without entropy =      -14.42625948  energy(sigma->0) =      -14.42625948


--------------------------------------------------------------------------------------------------------




--------------------------------------- Iteration      1(  19)  ---------------------------------------


    POTLOK:  cpu time      0.0236: real time      0.0238
    SETDIJ:  cpu time      0.0012: real time      0.0012
     EDDAV:  cpu time      0.0240: real time      0.0240
       DOS:  cpu time      0.0000: real time      0.0000
    CHARGE:  cpu time      0.0668: real time      0.0669
    MIXING:  cpu time      0.0679: real time      0.0680
    --------------------------------------------
      LOOP:  cpu time      0.1834: real time      0.1839

 eigenvalue-minimisations  :    19
 total energy-change (2. order) :-0.6324216E-05  (-0.1084505E-07)
 number of electron       9.9999958 magnetization 
 augmentation part        0.6527349 magnetization 

 Broyden mixing:
  rms(total) = 0.12682E-04    rms(broyden)= 0.12658E-04
  rms(prec ) = 0.20587E-04
  weight for this iteration     100.00

 eigenvalues of (default mixing * dielectric matrix)
  average eigenvalue GAMMA=   2.5283
  9.2745  5.5441  3.8389  2.6244  2.5165  2.5165  1.6980  1.6980  0.7648  1.0800
  0.9948  0.9948  0.9256  0.9256

 Free energy of the ion-electron system (eV)
  ---------------------------------------------------
  alpha Z        PSCENC =         0.12946890
  Ewald energy   TEWEN  =       166.45206973
  -Hartree energ DENC   =      -647.33225077
  -exchange      EXHF   =         0.00000000
  -V(xc)+E(xc)   XCENC  =        39.97990804
  PAW double counting   =       877.39758521     -879.49900145
  entropy T*S    EENTRO =        -0.00000000
  eigenvalues    EBANDS =      -151.08191934
  atomic energy  EATOM  =       579.52787388
  Solvation  Ediel_sol  =         0.00000000
  ---------------------------------------------------
  free energy    TOTEN  =       -14.42626580 eV

  energy without entropy =      -14.42626580  energy(sigma->0) =      -14.42626580


--------------------------------------------------------------------------------------------------------




--------------------------------------- Iteration      1(  20)  ---------------------------------------


    POTLOK:  cpu time      0.0238: real time      0.0239
    SETDIJ:  cpu time      0.0012: real time      0.0012
     EDDAV:  cpu time      0.0232: real time      0.0232
       DOS:  cpu time      0.0001: real time      0.0001
    CHARGE:  cpu time      0.0678: real time      0.0679
    MIXING:  cpu time      0.0685: real time      0.0686
    --------------------------------------------
      LOOP:  cpu time      0.1844: real time      0.1849

 eigenvalue-minimisations  :    18
 total energy-change (2. order) :-0.1866416E-05  (-0.1754902E-08)
 number of electron       9.9999958 magnetization 
 augmentation part        0.6527364 magnetization 

 Broyden mixing:
  rms(total) = 0.18338E-04    rms(broyden)= 0.18335E-04
  rms(prec ) = 0.21231E-04
  weight for this iteration     100.00

 eigenvalues of (default mixing * dielectric matrix)
  average eigenvalue GAMMA=   2.5691
  9.4174  5.8785  4.3948  3.2001  2.5460  2.3331  2.3331  1.6504  0.7648  1.1167
  1.0362  1.0362  0.9405  0.9405  0.9478

 Free energy of the ion-electron system (eV)
  ---------------------------------------------------
  alpha Z        PSCENC =         0.12946890
  Ewald energy   TEWEN  =       166.45206973
  -Hartree energ DENC   =      -647.33188183
  -exchange      EXHF   =         0.00000000
  -V(xc)+E(xc)   XCENC  =        39.97987943
  PAW double counting   =       877.39394148     -879.49533515
  entropy T*S    EENTRO =        -0.00000000
  eigenvalues    EBANDS =      -151.08228409
  atomic energy  EATOM  =       579.52787388
  Solvation  Ediel_sol  =         0.00000000
  ---------------------------------------------------
  free energy    TOTEN  =       -14.42626767 eV

  energy without entropy =      -14.42626767  energy(sigma->0) =      -14.42626767


--------------------------------------------------------------------------------------------------------




--------------------------------------- Iteration      1(  21)  ---------------------------------------


    POTLOK:  cpu time      0.0236: real time      0.0237
    SETDIJ:  cpu time      0.0012: real time      0.0012
     EDDAV:  cpu time      0.0230: real time      0.0230
       DOS:  cpu time      0.0000: real time      0.0000
    --------------------------------------------
      LOOP:  cpu time      0.0477: real time      0.0480

 eigenvalue-minimisations  :    18
 total energy-change (2. order) :-0.6152981E-06  (-0.1003247E-08)
 number of electron       9.9999958 magnetization 
 augmentation part        0.6527364 magnetization 

 Free energy of the ion-electron system (eV)
  ---------------------------------------------------
  alpha Z        PSCENC =         0.12946890
  Ewald energy   TEWEN  =       166.45206973
  -Hartree energ DENC   =      -647.33259481
  -exchange      EXHF   =         0.00000000
  -V(xc)+E(xc)   XCENC  =        39.97992063
  PAW double counting   =       877.40242767     -879.50382807
  entropy T*S    EENTRO =        -0.00000000
  eigenvalues    EBANDS =      -151.08160621
  atomic energy  EATOM  =       579.52787388
  Solvation  Ediel_sol  =         0.00000000
  ---------------------------------------------------
  free energy    TOTEN  =       -14.42626829 eV

  energy without entropy =      -14.42626829  energy(sigma->0) =      -14.42626829


--------------------------------------------------------------------------------------------------------




 average (electrostatic) potential at core
  the test charge radii are     0.6991  0.7215
  (the norm of the test charge is              1.0000)
       1 -61.7528       2 -83.5876
 
 
 
 E-fermi :  -8.8821     XC(G=0):  -0.2197     alpha+bet : -0.0519

 val. band max:       -8.9951592181   @ k =   0.0000   0.0000   0.0000
 cond. band min:      -2.0628092062   @ k =   0.0000   0.0000   0.0000
 fundamental gap:      6.9323500119
 Fermi energy:        -8.8820749238

 k-point     1 :       0.0000    0.0000    0.0000
  band No.  band energies     occupation 
      1     -29.2471      2.00000
      2     -14.0016      2.00000
      3     -11.6484      2.00000
      4     -11.6484      2.00000
      5      -8.9952      2.00000
      6      -2.0628      0.00000
      7      -2.0628      0.00000
      8      -0.1809      0.00000
      9       0.3568      0.00000


--------------------------------------------------------------------------------------------------------


 soft charge-density along one line, spin component            1
         0         1         2         3         4         5         6         7         8         9
 total charge-density along one line
 
 pseudopotential strength for first ion, spin component:            1
 10.449  13.901   0.000   0.025  -0.000  -0.000  -0.083   0.000
 13.901  18.494   0.000   0.033  -0.000  -0.000  -0.110   0.000
  0.000   0.000  -4.447   0.000   0.000   8.686  -0.000  -0.000
  0.025   0.033   0.000  -4.455   0.000  -0.000   8.690  -0.000
 -0.000  -0.000   0.000   0.000  -4.447  -0.000  -0.000   8.686
 -0.000  -0.000   8.686  -0.000  -0.000 -19.109   0.000   0.000
 -0.083  -0.110  -0.000   8.690  -0.000   0.000 -19.092   0.000
  0.000   0.000  -0.000  -0.000   8.686   0.000   0.000 -19.109
 total augmentation occupancy for first ion, spin component:            1
  8.194  -3.775   0.000   2.079   0.000   0.000   0.389   0.000
 -3.775   2.096  -0.000  -1.591   0.000  -0.000  -0.240   0.000
  0.000  -0.000   0.829   0.000   0.000   0.063  -0.000   0.000
  2.079  -1.591   0.000   2.236   0.000   0.000   0.215  -0.000
  0.000   0.000   0.000   0.000   0.829   0.000   0.000   0.063
  0.000  -0.000   0.063   0.000   0.000   0.005  -0.000   0.000
  0.389  -0.240  -0.000   0.215   0.000  -0.000   0.029   0.000
  0.000   0.000   0.000  -0.000   0.063   0.000   0.000   0.005


------------------------ aborting loop because EDIFF is reached ----------------------------------------


    CHARGE:  cpu time      0.0821: real time      0.0822
    FORLOC:  cpu time      0.0147: real time      0.0148
    FORNL :  cpu time      0.0364: real time      0.0365
    STRESS:  cpu time      0.2244: real time      0.2249
    FORCOR:  cpu time      0.0435: real time      0.0435
    FORHAR:  cpu time      0.0156: real time      0.0156
    MIXING:  cpu time      0.0705: real time      0.0707
    OFIELD:  cpu time      0.0000: real time      0.0000

  FORCE on cell =-STRESS in cart. coord.  units (eV):
  Direction    XX          YY          ZZ          XY          YZ          ZX
  --------------------------------------------------------------------------------------
  Alpha Z     0.12947     0.12947     0.12947
  Ewald     -45.53753   -45.53753   257.52709     0.00000    -0.00000    -0.00000
  Hartree   179.93661   179.93661   287.45856    -0.00000    -0.00000    -0.00000
  E(xc)     -44.43007   -44.43007   -42.93198    -0.00000     0.00000     0.00000
  Local    -269.68142  -269.68142  -653.74983     0.00000     0.00000    -0.00000
  n-local   -17.49396   -17.49396   -28.61844     0.00000    -0.00000    -0.00000
  augment     6.19289     6.19289     5.71612     0.00000     0.00000    -0.00000
  Kinetic   190.69275   190.69275   174.98928     0.00000     0.00000     0.00000
  Fock        0.00000     0.00000     0.00000     0.00000     0.00000     0.00000
  -------------------------------------------------------------------------------------
  Total      -0.19126    -0.19126     0.52028     0.00000     0.00000     0.00000
  in kB      -0.09079    -0.09079     0.24698     0.00000     0.00000     0.00000
  external pressure =        0.02 kB  Pullay stress =        0.00 kB


 VOLUME and BASIS-vectors are now :
 -----------------------------------------------------------------------------
  energy-cutoff  :      450.00
  volume of cell :     3375.00
      direct lattice vectors                 reciprocal lattice vectors
    15.000000000  0.000000000  0.000000000     0.066666667  0.000000000  0.000000000
     0.000000000 15.000000000  0.000000000     0.000000000  0.066666667  0.000000000
     0.000000000  0.000000000 15.000000000     0.000000000  0.000000000  0.066666667

  length of vectors
    15.000000000 15.000000000 15.000000000     0.066666667  0.066666667  0.066666667


 FORCES acting on ions
    electron-ion (+dipol)            ewald-force                    non-local-force                 convergence-correction
 -----------------------------------------------------------------------------------------------
   0.165E-12 -.272E-12 0.236E+03   -.546E-17 0.105E-17 -.264E+03   -.775E-25 0.000E+00 0.276E+02   0.128E-14 -.210E-14 0.147E-03
   0.465E-12 -.401E-12 -.204E+03   0.174E-16 -.127E-16 0.264E+03   0.747E-26 0.000E+00 -.590E+02   0.342E-14 -.690E-14 -.121E-03
 -----------------------------------------------------------------------------------------------
   0.630E-12 -.673E-12 0.313E+02   0.120E-16 -.116E-16 0.000E+00   -.701E-25 0.000E+00 -.313E+02   0.470E-14 -.900E-14 0.258E-04
 
 
 POSITION                                       TOTAL-FORCE (eV/Angst)
 -----------------------------------------------------------------------------------
      7.50000      7.50000      7.50000        -0.000000      0.000000     -0.599069
      7.50000      7.50000      8.64300         0.000000      0.000000      0.599069
 -----------------------------------------------------------------------------------
    total drift:                                0.000000     -0.000000      0.006834


--------------------------------------------------------------------------------------------------------



  FREE ENERGIE OF THE ION-ELECTRON SYSTEM (eV)
  ---------------------------------------------------
  free  energy   TOTEN  =       -14.42626829 eV

  energy  without entropy=      -14.42626829  energy(sigma->0) =      -14.42626829
 


--------------------------------------------------------------------------------------------------------


    POTLOK:  cpu time      0.0325: real time      0.0325


--------------------------------------------------------------------------------------------------------




--------------------------------------------------------------------------------------------------------


      MLFF:  cpu time      0.0002: real time      0.0016
    WAVPRE:  cpu time      0.1332: real time      0.1335
    FEWALD:  cpu time      0.0007: real time      0.0007
    ORTHCH:  cpu time      0.0067: real time      0.0068
     LOOP+:  cpu time      3.8043: real time      3.8188


--------------------------------------- Ionic step        2  -------------------------------------------




--------------------------------------- Iteration      2(   1)  ---------------------------------------


    POTLOK:  cpu time      0.0215: real time      0.0215
    SETDIJ:  cpu time      0.0012: real time      0.0012
     EDDAV:  cpu time      0.0230: real time      0.0231
       DOS:  cpu time      0.0000: real time      0.0000
    CHARGE:  cpu time      0.0686: real time      0.0688
    MIXING:  cpu time      0.0561: real time      0.0562
    --------------------------------------------
      LOOP:  cpu time      0.1705: real time      0.1709

 eigenvalue-minimisations  :    18
 total energy-change (2. order) : 0.1235264E+00  (-0.8585080E+00)
 number of electron       9.9999995 magnetization 
 augmentation part        0.6264985 magnetization 

 Broyden mixing:
  rms(total) = 0.12877E+00    rms(broyden)= 0.12859E+00
  rms(prec ) = 0.13620E+00
  weight for this iteration     100.00

 Free energy of the ion-electron system (eV)
  ---------------------------------------------------
  alpha Z        PSCENC =         0.12946890
  Ewald energy   TEWEN  =       151.92746020
  -Hartree energ DENC   =      -638.48015466
  -exchange      EXHF   =         0.00000000
  -V(xc)+E(xc)   XCENC  =        39.72497255
  PAW double counting   =       877.39945338     -879.50085078
  entropy T*S    EENTRO =        -0.00000000
  eigenvalues    EBANDS =      -145.03096469
  atomic energy  EATOM  =       579.52787388
  Solvation  Ediel_sol  =         0.00000000
  ---------------------------------------------------
  free energy    TOTEN  =       -14.30274122 eV

  energy without entropy =      -14.30274122  energy(sigma->0) =      -14.30274122


--------------------------------------------------------------------------------------------------------




--------------------------------------- Iteration      2(   2)  ---------------------------------------


    POTLOK:  cpu time      0.0233: real time      0.0239
    SETDIJ:  cpu time      0.0012: real time      0.0012
     EDDAV:  cpu time      0.0250: real time      0.0250
       DOS:  cpu time      0.0000: real time      0.0000
    CHARGE:  cpu time      0.0625: real time      0.0626
    MIXING:  cpu time      0.0564: real time      0.0565
    --------------------------------------------
      LOOP:  cpu time      0.1683: real time      0.1692

 eigenvalue-minimisations  :    20
 total energy-change (2. order) : 0.6082300E-02  (-0.1629901E-01)
 number of electron       9.9999995 magnetization 
 augmentation part        0.6205017 magnetization 

 Broyden mixing:
  rms(total) = 0.58623E-01    rms(broyden)= 0.58592E-01
  rms(prec ) = 0.62960E-01
  weight for this iteration     100.00

 eigenvalues of (default mixing * dielectric matrix)
  average eigenvalue GAMMA=   1.4294
  1.4294

 Free energy of the ion-electron system (eV)
  ---------------------------------------------------
  alpha Z        PSCENC =         0.12946890
  Ewald energy   TEWEN  =       151.92746020
  -Hartree energ DENC   =      -637.07457121
  -exchange      EXHF   =         0.00000000
  -V(xc)+E(xc)   XCENC  =        39.64115256
  PAW double counting   =       835.31271065     -837.39880516
  entropy T*S    EENTRO =        -0.00000000
  eigenvalues    EBANDS =      -146.36194874
  atomic energy  EATOM  =       579.52787388
  Solvation  Ediel_sol  =         0.00000000
  ---------------------------------------------------
  free energy    TOTEN  =       -14.29665892 eV

  energy without entropy =      -14.29665892  energy(sigma->0) =      -14.29665892


--------------------------------------------------------------------------------------------------------




--------------------------------------- Iteration      2(   3)  ---------------------------------------


    POTLOK:  cpu time      0.0217: real time      0.0218
    SETDIJ:  cpu time      0.0012: real time      0.0012
     EDDAV:  cpu time      0.0249: real time      0.0250
       DOS:  cpu time      0.0000: real time      0.0000
    CHARGE:  cpu time      0.0596: real time      0.0597
    MIXING:  cpu time      0.0627: real time      0.0629
    --------------------------------------------
      LOOP:  cpu time      0.1702: real time      0.1707

 eigenvalue-minimisations  :    20
 total energy-change (2. order) : 0.5595806E-02  (-0.2024506E-02)
 number of electron       9.9999995 magnetization 
 augmentation part        0.6238807 magnetization 

 Broyden mixing:
  rms(total) = 0.20678E-01    rms(broyden)= 0.20655E-01
  rms(prec ) = 0.21602E-01
  weight for this iteration     100.00

 eigenvalues of (default mixing * dielectric matrix)
  average eigenvalue GAMMA=   1.4337
  0.9283  1.9391

 Free energy of the ion-electron system (eV)
  ---------------------------------------------------
  alpha Z        PSCENC =         0.12946890
  Ewald energy   TEWEN  =       151.92746020
  -Hartree energ DENC   =      -635.69351973
  -exchange      EXHF   =         0.00000000
  -V(xc)+E(xc)   XCENC  =        39.56458085
  PAW double counting   =       805.91927604     -807.97343376
  entropy T*S    EENTRO =        -0.00000000
  eigenvalues    EBANDS =      -147.69276950
  atomic energy  EATOM  =       579.52787388
  Solvation  Ediel_sol  =         0.00000000
  ---------------------------------------------------
  free energy    TOTEN  =       -14.29106312 eV

  energy without entropy =      -14.29106312  energy(sigma->0) =      -14.29106312


--------------------------------------------------------------------------------------------------------




--------------------------------------- Iteration      2(   4)  ---------------------------------------


    POTLOK:  cpu time      0.0220: real time      0.0222
    SETDIJ:  cpu time      0.0012: real time      0.0012
     EDDAV:  cpu time      0.0316: real time      0.0316
       DOS:  cpu time      0.0000: real time      0.0000
    CHARGE:  cpu time      0.0580: real time      0.0582
    MIXING:  cpu time      0.0570: real time      0.0571
    --------------------------------------------
      LOOP:  cpu time      0.1698: real time      0.1703

 eigenvalue-minimisations  :    28
 total energy-change (2. order) : 0.6294770E-04  (-0.1731238E-03)
 number of electron       9.9999995 magnetization 
 augmentation part        0.6236658 magnetization 

 Broyden mixing:
  rms(total) = 0.89106E-02    rms(broyden)= 0.89057E-02
  rms(prec ) = 0.94606E-02
  weight for this iteration     100.00

 eigenvalues of (default mixing * dielectric matrix)
  average eigenvalue GAMMA=   1.4853
  2.2996  1.0782  1.0782

 Free energy of the ion-electron system (eV)
  ---------------------------------------------------
  alpha Z        PSCENC =         0.12946890
  Ewald energy   TEWEN  =       151.92746020
  -Hartree energ DENC   =      -635.49442818
  -exchange      EXHF   =         0.00000000
  -V(xc)+E(xc)   XCENC  =        39.55337958
  PAW double counting   =       792.46406843     -794.51097275
  entropy T*S    EENTRO =        -0.00000000
  eigenvalues    EBANDS =      -147.88785022
  atomic energy  EATOM  =       579.52787388
  Solvation  Ediel_sol  =         0.00000000
  ---------------------------------------------------
  free energy    TOTEN  =       -14.29100017 eV

  energy without entropy =      -14.29100017  energy(sigma->0) =      -14.29100017


--------------------------------------------------------------------------------------------------------




--------------------------------------- Iteration      2(   5)  ---------------------------------------


    POTLOK:  cpu time      0.0219: real time      0.0220
    SETDIJ:  cpu time      0.0012: real time      0.0012
     EDDAV:  cpu time      0.0239: real time      0.0240
[...]
  entropy T*S    EENTRO =        -0.00000000
  eigenvalues    EBANDS =      -150.77407041
  atomic energy  EATOM  =       579.52787388
  Solvation  Ediel_sol  =         0.00000000
  ---------------------------------------------------
  free energy    TOTEN  =       -14.42772530 eV

  energy without entropy =      -14.42772530  energy(sigma->0) =      -14.42772530


--------------------------------------------------------------------------------------------------------




--------------------------------------- Iteration      3(  10)  ---------------------------------------


    POTLOK:  cpu time      0.0235: real time      0.0237
    SETDIJ:  cpu time      0.0012: real time      0.0012
     EDDAV:  cpu time      0.0250: real time      0.0250
       DOS:  cpu time      0.0000: real time      0.0000
    CHARGE:  cpu time      0.0674: real time      0.0675
    MIXING:  cpu time      0.0619: real time      0.0620
    --------------------------------------------
      LOOP:  cpu time      0.1789: real time      0.1794

 eigenvalue-minimisations  :    20
 total energy-change (2. order) :-0.5296649E-04  (-0.3727504E-06)
 number of electron       9.9999963 magnetization 
 augmentation part        0.6499186 magnetization 

 Broyden mixing:
  rms(total) = 0.11094E-03    rms(broyden)= 0.11088E-03
  rms(prec ) = 0.17489E-03
  weight for this iteration     100.00

 eigenvalues of (default mixing * dielectric matrix)
  average eigenvalue GAMMA=   2.0727
  6.0549  2.8860  2.1778  2.1778  1.6244  1.0191  0.9852  0.8645  0.8645

 Free energy of the ion-electron system (eV)
  ---------------------------------------------------
  alpha Z        PSCENC =         0.12946890
  Ewald energy   TEWEN  =       165.05596517
  -Hartree energ DENC   =      -646.21327095
  -exchange      EXHF   =         0.00000000
  -V(xc)+E(xc)   XCENC  =        39.93927333
  PAW double counting   =       867.99841364     -870.09433329
  entropy T*S    EENTRO =        -0.00000000
  eigenvalues    EBANDS =      -150.77116893
  atomic energy  EATOM  =       579.52787388
  Solvation  Ediel_sol  =         0.00000000
  ---------------------------------------------------
  free energy    TOTEN  =       -14.42777826 eV

  energy without entropy =      -14.42777826  energy(sigma->0) =      -14.42777826


--------------------------------------------------------------------------------------------------------




--------------------------------------- Iteration      3(  11)  ---------------------------------------


    POTLOK:  cpu time      0.0236: real time      0.0238
    SETDIJ:  cpu time      0.0012: real time      0.0012
     EDDAV:  cpu time      0.0315: real time      0.0315
       DOS:  cpu time      0.0000: real time      0.0000
    CHARGE:  cpu time      0.0673: real time      0.0674
    MIXING:  cpu time      0.0628: real time      0.0630
    --------------------------------------------
      LOOP:  cpu time      0.1865: real time      0.1870

 eigenvalue-minimisations  :    28
 total energy-change (2. order) :-0.3397097E-04  (-0.1203586E-06)
 number of electron       9.9999963 magnetization 
 augmentation part        0.6499148 magnetization 

 Broyden mixing:
  rms(total) = 0.42155E-04    rms(broyden)= 0.42139E-04
  rms(prec ) = 0.77380E-04
  weight for this iteration     100.00

 eigenvalues of (default mixing * dielectric matrix)
  average eigenvalue GAMMA=   2.1844
  7.5466  3.0012  2.5300  2.1181  1.6588  1.1984  1.0464  0.8837  0.8837  0.9768

 Free energy of the ion-electron system (eV)
  ---------------------------------------------------
  alpha Z        PSCENC =         0.12946890
  Ewald energy   TEWEN  =       165.05596517
  -Hartree energ DENC   =      -646.21018231
  -exchange      EXHF   =         0.00000000
  -V(xc)+E(xc)   XCENC  =        39.93908513
  PAW double counting   =       868.06435543     -870.16021156
  entropy T*S    EENTRO =        -0.00000000
  eigenvalues    EBANDS =      -150.77416687
  atomic energy  EATOM  =       579.52787388
  Solvation  Ediel_sol  =         0.00000000
  ---------------------------------------------------
  free energy    TOTEN  =       -14.42781224 eV

  energy without entropy =      -14.42781224  energy(sigma->0) =      -14.42781224


--------------------------------------------------------------------------------------------------------




--------------------------------------- Iteration      3(  12)  ---------------------------------------


    POTLOK:  cpu time      0.0236: real time      0.0238
    SETDIJ:  cpu time      0.0012: real time      0.0012
     EDDAV:  cpu time      0.0249: real time      0.0250
       DOS:  cpu time      0.0000: real time      0.0000
    CHARGE:  cpu time      0.0683: real time      0.0685
    MIXING:  cpu time      0.0639: real time      0.0640
    --------------------------------------------
      LOOP:  cpu time      0.1819: real time      0.1825

 eigenvalue-minimisations  :    20
 total energy-change (2. order) :-0.1158809E-04  (-0.1866129E-07)
 number of electron       9.9999963 magnetization 
 augmentation part        0.6499161 magnetization 

 Broyden mixing:
  rms(total) = 0.27308E-04    rms(broyden)= 0.27307E-04
  rms(prec ) = 0.46836E-04
  weight for this iteration     100.00

 eigenvalues of (default mixing * dielectric matrix)
  average eigenvalue GAMMA=   2.3878
  8.4659  4.3714  2.6472  2.2714  2.0560  1.6394  0.8737  0.8737  1.0481  1.0481
  0.9713

 Free energy of the ion-electron system (eV)
  ---------------------------------------------------
  alpha Z        PSCENC =         0.12946890
  Ewald energy   TEWEN  =       165.05596517
  -Hartree energ DENC   =      -646.20898842
  -exchange      EXHF   =         0.00000000
  -V(xc)+E(xc)   XCENC  =        39.93901497
  PAW double counting   =       868.09096028     -870.18678664
  entropy T*S    EENTRO =        -0.00000000
  eigenvalues    EBANDS =      -150.77533196
  atomic energy  EATOM  =       579.52787388
  Solvation  Ediel_sol  =         0.00000000
  ---------------------------------------------------
  free energy    TOTEN  =       -14.42782382 eV

  energy without entropy =      -14.42782382  energy(sigma->0) =      -14.42782382


--------------------------------------------------------------------------------------------------------




--------------------------------------- Iteration      3(  13)  ---------------------------------------


    POTLOK:  cpu time      0.0235: real time      0.0237
    SETDIJ:  cpu time      0.0012: real time      0.0012
     EDDAV:  cpu time      0.0306: real time      0.0307
       DOS:  cpu time      0.0001: real time      0.0001
    CHARGE:  cpu time      0.0673: real time      0.0674
    MIXING:  cpu time      0.0654: real time      0.0655
    --------------------------------------------
      LOOP:  cpu time      0.1881: real time      0.1885

 eigenvalue-minimisations  :    27
 total energy-change (2. order) :-0.8168993E-05  (-0.1954281E-07)
 number of electron       9.9999963 magnetization 
 augmentation part        0.6499142 magnetization 

 Broyden mixing:
  rms(total) = 0.14414E-04    rms(broyden)= 0.14401E-04
  rms(prec ) = 0.22025E-04
  weight for this iteration     100.00

 eigenvalues of (default mixing * dielectric matrix)
  average eigenvalue GAMMA=   2.4230
  8.8579  4.7952  2.8938  2.5124  1.8404  1.8404  1.5972  0.8661  0.8661  1.0243
  1.0243  0.9578

 Free energy of the ion-electron system (eV)
  ---------------------------------------------------
  alpha Z        PSCENC =         0.12946890
  Ewald energy   TEWEN  =       165.05596517
  -Hartree energ DENC   =      -646.20820943
  -exchange      EXHF   =         0.00000000
  -V(xc)+E(xc)   XCENC  =        39.93897371
  PAW double counting   =       868.08168746     -870.17748010
  entropy T*S    EENTRO =        -0.00000000
  eigenvalues    EBANDS =      -150.77611157
  atomic energy  EATOM  =       579.52787388
  Solvation  Ediel_sol  =         0.00000000
  ---------------------------------------------------
  free energy    TOTEN  =       -14.42783199 eV

  energy without entropy =      -14.42783199  energy(sigma->0) =      -14.42783199


--------------------------------------------------------------------------------------------------------




--------------------------------------- Iteration      3(  14)  ---------------------------------------


    POTLOK:  cpu time      0.0239: real time      0.0241
    SETDIJ:  cpu time      0.0012: real time      0.0012
     EDDAV:  cpu time      0.0249: real time      0.0250
       DOS:  cpu time      0.0000: real time      0.0000
    CHARGE:  cpu time      0.0674: real time      0.0676
    MIXING:  cpu time      0.0661: real time      0.0662
    --------------------------------------------
      LOOP:  cpu time      0.1835: real time      0.1840

 eigenvalue-minimisations  :    20
 total energy-change (2. order) :-0.2549230E-05  (-0.4180173E-08)
 number of electron       9.9999963 magnetization 
 augmentation part        0.6499145 magnetization 

 Broyden mixing:
  rms(total) = 0.80871E-05    rms(broyden)= 0.80857E-05
  rms(prec ) = 0.11313E-04
  weight for this iteration     100.00

 eigenvalues of (default mixing * dielectric matrix)
  average eigenvalue GAMMA=   2.4644
  9.3188  5.2291  3.2372  2.5862  2.2969  1.9199  1.6210  0.8681  0.8681  1.0838
  1.0507  1.0133  0.9439

 Free energy of the ion-electron system (eV)
  ---------------------------------------------------
  alpha Z        PSCENC =         0.12946890
  Ewald energy   TEWEN  =       165.05596517
  -Hartree energ DENC   =      -646.20815854
  -exchange      EXHF   =         0.00000000
  -V(xc)+E(xc)   XCENC  =        39.93898186
  PAW double counting   =       868.07002119     -870.16581312
  entropy T*S    EENTRO =        -0.00000000
  eigenvalues    EBANDS =      -150.77617387
  atomic energy  EATOM  =       579.52787388
  Solvation  Ediel_sol  =         0.00000000
  ---------------------------------------------------
  free energy    TOTEN  =       -14.42783454 eV

  energy without entropy =      -14.42783454  energy(sigma->0) =      -14.42783454


--------------------------------------------------------------------------------------------------------




--------------------------------------- Iteration      3(  15)  ---------------------------------------


    POTLOK:  cpu time      0.0234: real time      0.0237
    SETDIJ:  cpu time      0.0012: real time      0.0012
     EDDAV:  cpu time      0.0250: real time      0.0250
       DOS:  cpu time      0.0000: real time      0.0000
    --------------------------------------------
      LOOP:  cpu time      0.0495: real time      0.0499

 eigenvalue-minimisations  :    20
 total energy-change (2. order) :-0.7151922E-06  (-0.6466401E-09)
 number of electron       9.9999963 magnetization 
 augmentation part        0.6499145 magnetization 

 Free energy of the ion-electron system (eV)
  ---------------------------------------------------
  alpha Z        PSCENC =         0.12946890
  Ewald energy   TEWEN  =       165.05596517
  -Hartree energ DENC   =      -646.20819463
  -exchange      EXHF   =         0.00000000
  -V(xc)+E(xc)   XCENC  =        39.93898320
  PAW double counting   =       868.07322319     -870.16903280
  entropy T*S    EENTRO =        -0.00000000
  eigenvalues    EBANDS =      -150.77612217
  atomic energy  EATOM  =       579.52787388
  Solvation  Ediel_sol  =         0.00000000
  ---------------------------------------------------
  free energy    TOTEN  =       -14.42783526 eV

  energy without entropy =      -14.42783526  energy(sigma->0) =      -14.42783526


--------------------------------------------------------------------------------------------------------




 average (electrostatic) potential at core
  the test charge radii are     0.6991  0.7215
  (the norm of the test charge is              1.0000)
       1 -61.7740       2 -83.5642
 
 
 
 E-fermi :  -8.9380     XC(G=0):  -0.2183     alpha+bet : -0.0519

 val. band max:       -9.0067209139   @ k =   0.0000   0.0000   0.0000
 cond. band min:      -2.1125710636   @ k =   0.0000   0.0000   0.0000
 fundamental gap:      6.8941498503
 Fermi energy:        -8.9380061813

 k-point     1 :       0.0000    0.0000    0.0000
  band No.  band energies     occupation 
      1     -29.1697      2.00000
      2     -14.0064      2.00000
      3     -11.6027      2.00000
      4     -11.6027      2.00000
      5      -9.0067      2.00000
      6      -2.1126      0.00000
      7      -2.1126      0.00000
      8      -0.1791      0.00000
      9       0.3584      0.00000


--------------------------------------------------------------------------------------------------------


 soft charge-density along one line, spin component            1
         0         1         2         3         4         5         6         7         8         9
 total charge-density along one line
 
 pseudopotential strength for first ion, spin component:            1
 10.449  13.902  -0.000   0.025  -0.000   0.000  -0.082   0.000
 13.902  18.495  -0.000   0.033  -0.000   0.000  -0.108   0.000
 -0.000  -0.000  -4.448   0.000   0.000   8.690  -0.000  -0.000
  0.025   0.033   0.000  -4.456   0.000  -0.000   8.692  -0.000
 -0.000  -0.000   0.000   0.000  -4.448  -0.000  -0.000   8.690
  0.000   0.000   8.690  -0.000  -0.000 -19.118   0.000   0.000
 -0.082  -0.108  -0.000   8.692  -0.000   0.000 -19.097   0.000
  0.000   0.000  -0.000  -0.000   8.690   0.000   0.000 -19.118
 total augmentation occupancy for first ion, spin component:            1
  8.061  -3.696   0.000   2.040   0.000   0.000   0.382   0.000
 -3.696   2.052  -0.000  -1.569   0.000   0.000  -0.236   0.000
  0.000  -0.000   0.822   0.000   0.000   0.062  -0.000  -0.000
  2.040  -1.569   0.000   2.218   0.000   0.000   0.213   0.000
  0.000   0.000   0.000   0.000   0.822   0.000   0.000   0.062
  0.000   0.000   0.062   0.000   0.000   0.005  -0.000   0.000
  0.382  -0.236  -0.000   0.213   0.000  -0.000   0.029   0.000
  0.000   0.000  -0.000   0.000   0.062   0.000   0.000   0.005


------------------------ aborting loop because EDIFF is reached ----------------------------------------


    CHARGE:  cpu time      0.0799: real time      0.0801
    FORLOC:  cpu time      0.0135: real time      0.0136
    FORNL :  cpu time      0.0364: real time      0.0365
    STRESS:  cpu time      0.2256: real time      0.2260
    FORCOR:  cpu time      0.0437: real time      0.0438
    FORHAR:  cpu time      0.0156: real time      0.0156
    MIXING:  cpu time      0.0724: real time      0.0726
    OFIELD:  cpu time      0.0000: real time      0.0000

  FORCE on cell =-STRESS in cart. coord.  units (eV):
  Direction    XX          YY          ZZ          XY          YZ          ZX
  --------------------------------------------------------------------------------------
  Alpha Z     0.12947     0.12947     0.12947
  Ewald     -45.53882   -45.53882   256.13357    -0.00000     0.00000     0.00000
  Hartree   179.51601   179.51601   287.17616    -0.00000    -0.00000    -0.00000
  E(xc)     -44.38701   -44.38701   -42.89024    -0.00000     0.00000    -0.00000
  Local    -269.14405  -269.14405  -652.67903     0.00000     0.00000     0.00000
  n-local   -17.42317   -17.42317   -28.46996     0.00000     0.00000     0.00000
  augment     6.18486     6.18486     5.74274     0.00000    -0.00000     0.00000
  Kinetic   190.47171   190.47171   174.68913     0.00000    -0.00000     0.00000
  Fock        0.00000     0.00000     0.00000     0.00000     0.00000     0.00000
  -------------------------------------------------------------------------------------
  Total      -0.19101    -0.19101    -0.16816     0.00000     0.00000     0.00000
  in kB      -0.09067    -0.09067    -0.07983     0.00000     0.00000     0.00000
  external pressure =       -0.09 kB  Pullay stress =        0.00 kB


 VOLUME and BASIS-vectors are now :
 -----------------------------------------------------------------------------
  energy-cutoff  :      450.00
  volume of cell :     3375.00
      direct lattice vectors                 reciprocal lattice vectors
    15.000000000  0.000000000  0.000000000     0.066666667  0.000000000  0.000000000
     0.000000000 15.000000000  0.000000000     0.000000000  0.066666667  0.000000000
     0.000000000  0.000000000 15.000000000     0.000000000  0.000000000  0.066666667

  length of vectors
    15.000000000 15.000000000 15.000000000     0.066666667  0.066666667  0.066666667


 FORCES acting on ions
    electron-ion (+dipol)            ewald-force                    non-local-force                 convergence-correction
 -----------------------------------------------------------------------------------------------
   0.162E-12 0.275E-12 0.234E+03   0.145E-16 0.138E-16 -.262E+03   0.126E-27 0.202E-27 0.277E+02   0.509E-14 0.410E-14 -.510E-05
   0.464E-12 -.163E-12 -.203E+03   -.260E-17 -.255E-16 0.262E+03   -.101E-27 0.000E+00 -.586E+02   0.493E-14 0.553E-14 -.773E-04
 -----------------------------------------------------------------------------------------------
   0.626E-12 0.112E-12 0.310E+02   0.119E-16 -.117E-16 0.000E+00   0.252E-28 0.202E-27 -.310E+02   0.100E-13 0.963E-14 -.824E-04
 
 
 POSITION                                       TOTAL-FORCE (eV/Angst)
 -----------------------------------------------------------------------------------
      7.50000      7.50000      7.49734        -0.000000      0.000000      0.004363
      7.50000      7.50000      8.64566         0.000000      0.000000     -0.004363
 -----------------------------------------------------------------------------------
    total drift:                                0.000000      0.000000      0.007107


--------------------------------------------------------------------------------------------------------



  FREE ENERGIE OF THE ION-ELECTRON SYSTEM (eV)
  ---------------------------------------------------
  free  energy   TOTEN  =       -14.42783526 eV

  energy  without entropy=      -14.42783526  energy(sigma->0) =      -14.42783526
 d Force = 0.1278264E+00[ 0.229E-03, 0.255E+00]  d Energy = 0.1360614E+00-0.823E-02
 d Force =-0.1314165E+02[-0.137E+02,-0.126E+02]  d Ewald  =-0.1312850E+02-0.131E-01
 


--------------------------------------------------------------------------------------------------------


    POTLOK:  cpu time      0.0303: real time      0.0304


--------------------------------------------------------------------------------------------------------




--------------------------------------------------------------------------------------------------------


  
 reached required accuracy - stopping structural energy minimisation
     LOOP+:  cpu time      3.0269: real time      3.0411
    4ORBIT:  cpu time      0.0000: real time      0.0000

 total amount of memory used by VASP MPI-rank0   445285. kBytes
=======================================================================

   base                                    :      30000. kBytes
   nonl-proj                               :      11669. kBytes
   fftplans                                :     141100. kBytes
   grid                                    :     252006. kBytes
   one-center                              :          6. kBytes
   wavefun                                 :      10504. kBytes
 
  
  
 General timing and accounting informations for this job:
 ========================================================
  
                  Total CPU time used (sec):       15.213
                            User time (sec):       13.758
                          System time (sec):        1.454
                         Elapsed time (sec):       15.518
  
                   Maximum memory used (kb):     2105724.
                   Average memory used (kb):          N/A
  
                          Minor page faults:      1085038
                          Major page faults:            0
                 Voluntary context switches:         4281
