<?xml version="1.0" encoding="ISO-8859-1"?>
<modeling>
 <generator>
  <i name="program" type="string">vasp </i>
  <i name="version" type="string">6.5.1  </i>
  <i name="subversion" type="string">10Mar25 (build Mar 14 2026 15:48:08) complex                          parallel </i>
  <i name="platform" type="string">LinuxNV </i>
  <i name="date" type="string">2026 03 23 </i>
  <i name="time" type="string">15:40:20 </i>
 </generator>
 <incar>
  <i type="string" name="SYSTEM">CO molecule in vacuum</i>
  <i type="string" name="PREC">Normal</i>
  <i type="string" name="ALGO">Normal</i>
  <i type="int" name="ISPIN">     1</i>
  <i type="int" name="IBRION">     2</i>
  <i name="EDIFF">      0.00000100</i>
  <i name="EDIFFG">     -0.01000000</i>
  <i type="int" name="NSW">    50</i>
  <i type="int" name="ISIF">     2</i>
  <i name="ENCUT">    450.00000000</i>
  <i type="logical" name="LREAL"> F  </i>
  <i type="int" name="ISMEAR">     0</i>
  <i name="SIGMA">      0.01000000</i>
  <i type="logical" name="LWAVE"> F  </i>
  <i type="logical" name="LCHARG"> F  </i>
  <i type="string" name="GGA">RP</i>
 </incar>
 <primitive_cell>
  <structure name="primitive_cell" >
   <crystal>
    <varray name="basis" >
     <v>      15.00000000       0.00000000       0.00000000 </v>
     <v>       0.00000000      15.00000000       0.00000000 </v>
     <v>       0.00000000       0.00000000      15.00000000 </v>
    </varray>
    <i name="volume">   3375.00000000 </i>
    <varray name="rec_basis" >
     <v>       0.06666667       0.00000000       0.00000000 </v>
     <v>       0.00000000       0.06666667       0.00000000 </v>
     <v>       0.00000000       0.00000000       0.06666667 </v>
    </varray>
   </crystal>
   <varray name="positions" >
    <v>       0.50000000       0.50000000       0.50000000 </v>
    <v>       0.50000000       0.50000000       0.57620000 </v>
   </varray>
  </structure>
  <varray name="primitive_index" >
   <v type="int" >        1 </v>
   <v type="int" >        2 </v>
  </varray>
 </primitive_cell>
 <kpoints>
  <generation param="Gamma">
   <v type="int" name="divisions">       1        1        1 </v>
   <v name="usershift">      0.00000000       0.00000000       0.00000000 </v>
   <v name="genvec1">      1.00000000       0.00000000       0.00000000 </v>
   <v name="genvec2">      0.00000000       1.00000000       0.00000000 </v>
   <v name="genvec3">      0.00000000       0.00000000       1.00000000 </v>
   <v name="shift">      0.00000000       0.00000000       0.00000000 </v>
  </generation>
  <varray name="kpointlist" >
   <v>       0.00000000       0.00000000       0.00000000 </v>
  </varray>
  <varray name="weights" >
   <v>       1.00000000 </v>
  </varray>
 </kpoints>
 <parameters>
  <separator name="general" >
   <i type="string" name="SYSTEM">CO molecule in vacuum</i>
   <i type="logical" name="LCOMPAT"> F  </i>
  </separator>
  <separator name="electronic" >
   <i type="string" name="PREC">normal</i>
   <i name="ENMAX">    450.00000000</i>
   <i name="ENAUG">    644.87300000</i>
   <i name="EDIFF">      0.00000100</i>
   <i type="int" name="IALGO">    38</i>
   <i type="int" name="IWAVPR">    11</i>
   <i type="int" name="NBANDS">     9</i>
   <i type="int" name="NBANDSLOW">    -1</i>
   <i type="int" name="NBANDSHIGH">    -1</i>
   <i name="NELECT">     10.00000000</i>
   <i type="int" name="TURBO">     0</i>
   <i type="int" name="IRESTART">     0</i>
   <i type="int" name="NREBOOT">     0</i>
   <i type="int" name="NMIN">     0</i>
   <i name="EREF">      0.00000000</i>
   <separator name="electronic smearing" >
    <i type="int" name="ISMEAR">     0</i>
    <i name="SIGMA">      0.01000000</i>
    <i name="KSPACING">      0.50000000</i>
    <i type="logical" name="KGAMMA"> T  </i>
    <i type="logical" name="KBLOWUP"> T  </i>
   </separator>
   <separator name="electronic projectors" >
    <i type="logical" name="LREAL"> F  </i>
    <v name="ROPT">      0.00000000      0.00000000</v>
    <i type="int" name="LMAXPAW">  -100</i>
    <i type="int" name="LMAXMIX">     2</i>
    <i type="logical" name="NLSPLINE"> F  </i>
   </separator>
   <separator name="electronic startup" >
    <i type="int" name="ISTART">     0</i>
    <i type="int" name="ICHARG">     2</i>
    <i type="int" name="INIWAV">     1</i>
   </separator>
   <separator name="electronic spin" >
    <i type="int" name="ISPIN">     1</i>
    <i type="logical" name="LNONCOLLINEAR"> F  </i>
    <v name="MAGMOM">      1.00000000      1.00000000</v>
    <i name="NUPDOWN">     -1.00000000</i>
    <i type="logical" name="LSORBIT"> F  </i>
    <v name="SAXIS">      0.00000000      0.00000000      1.00000000</v>
    <i type="logical" name="LSPIRAL"> F  </i>
    <v name="QSPIRAL">      0.00000000      0.00000000      0.00000000</v>
    <i type="logical" name="LZEROZ"> F  </i>
   </separator>
   <separator name="electronic exchange-correlation" >
    <i type="logical" name="LASPH"> F  </i>
   </separator>
   <separator name="electronic convergence" >
    <i type="int" name="NELM">    60</i>
    <i type="int" name="NELMDL">    -5</i>
    <i type="int" name="NELMIN">     2</i>
    <i name="ENINI">    450.00000000</i>
    <separator name="electronic convergence detail" >
     <i type="logical" name="LDIAG"> T  </i>
     <i type="logical" name="LSUBROT"> F  </i>
     <i type="logical" name="LROBUST"> F  </i>
     <i type="int" name="ISEARCH">     0</i>
     <i name="WEIMIN">      0.00100000</i>
     <i name="EBREAK">      0.00000003</i>
     <i name="DEPER">      0.30000000</i>
     <i type="int" name="NRMM">     4</i>
     <i name="TIME">      0.40000000</i>
    </separator>
   </separator>
   <separator name="electronic mixer" >
    <i name="AMIX">      0.40000000</i>
    <i name="BMIX">      1.00000000</i>
    <i name="AMIN">      0.10000000</i>
    <i name="AMIX_MAG">      1.60000000</i>
    <i name="BMIX_MAG">      1.00000000</i>
    <separator name="electronic mixer details" >
     <i type="int" name="IMIX">     4</i>
     <i type="logical" name="MIXFIRST"> F  </i>
     <i type="int" name="MAXMIX">   -45</i>
     <i name="WC">    100.00000000</i>
     <i type="int" name="INIMIX">     1</i>
     <i type="int" name="MIXPRE">     1</i>
     <i type="int" name="MREMOVE">     5</i>
    </separator>
   </separator>
   <separator name="electronic dipolcorrection" >
    <i type="logical" name="LDIPOL"> F  </i>
    <i type="logical" name="LMONO"> F  </i>
    <i type="int" name="IDIPOL">     0</i>
    <i name="EPSILON">      1.00000000</i>
    <v name="DIPOL">   -100.00000000   -100.00000000   -100.00000000</v>
    <i name="EFIELD">      0.00000000</i>
    <i type="logical" name="LVACPOTAV"> F  </i>
   </separator>
  </separator>
  <separator name="grids" >
   <i type="int" name="NGX">    80</i>
   <i type="int" name="NGY">    80</i>
   <i type="int" name="NGZ">    80</i>
   <i type="int" name="NGXF">   160</i>
   <i type="int" name="NGYF">   160</i>
   <i type="int" name="NGZF">   160</i>
   <i type="logical" name="ADDGRID"> F  </i>
  </separator>
  <separator name="ionic" >
   <i type="int" name="NSW">    50</i>
   <i type="int" name="IBRION">     2</i>
   <i type="int" name="MDALGO">     0</i>
   <i type="int" name="ISIF">     2</i>
   <i name="PSTRESS">      0.00000000</i>
   <i name="EDIFFG">     -0.01000000</i>
   <i type="int" name="NFREE">     1</i>
   <i name="POTIM">      0.50000000</i>
   <i name="SMASS">     -3.00000000</i>
   <i name="SCALEE">      1.00000000</i>
  </separator>
  <separator name="ionic md" >
   <i name="TEBEG">      0.00010000</i>
   <i name="TEEND">      0.00010000</i>
   <i type="int" name="NBLOCK">     1</i>
   <i type="int" name="KBLOCK">    50</i>
   <i type="int" name="NPACO">   256</i>
   <i name="APACO">     10.00000000</i>
  </separator>
  <separator name="symmetry" >
   <i type="int" name="ISYM">     2</i>
   <i name="SYMPREC">      0.00001000</i>
  </separator>
  <separator name="dos" >
   <i type="int" name="LORBIT">     0</i>
   <v name="RWIGS">     -1.00000000     -1.00000000</v>
   <i type="int" name="NEDOS">   301</i>
   <i name="EMIN">     10.00000000</i>
   <i name="EMAX">    -10.00000000</i>
   <i name="EFERMI">      0.00000000</i>
  </separator>
  <separator name="writing" >
   <i type="int" name="NWRITE">     2</i>
   <i type="logical" name="LWAVE"> F  </i>
   <i type="logical" name="LDOWNSAMPLE"> F  </i>
   <i type="logical" name="LCHARG"> F  </i>
   <i type="logical" name="LPARD"> F  </i>
   <i type="logical" name="LVTOT"> F  </i>
   <i type="logical" name="LVHAR"> F  </i>
   <i type="logical" name="LELF"> F  </i>
   <i type="logical" name="LOPTICS"> F  </i>
   <v name="STM">      0.00000000      0.00000000      0.00000000      0.00000000      0.00000000      0.00000000      0.00000000</v>
  </separator>
  <separator name="performance" >
   <i type="int" name="NPAR">     1</i>
   <i type="int" name="NSIM">     4</i>
   <i type="int" name="NBLK">    -1</i>
   <i type="logical" name="LPLANE"> T  </i>
   <i type="logical" name="LSCALAPACK"> T  </i>
   <i type="logical" name="LSCAAWARE"> F  </i>
   <i type="logical" name="LSCALU"> F  </i>
   <i type="logical" name="LASYNC"> F  </i>
   <i type="logical" name="LORBITALREAL"> F  </i>
  </separator>
  <separator name="miscellaneous" >
   <i type="int" name="IDIOT">     3</i>
   <i type="int" name="PHON_NSTRUCT">    -1</i>
   <i type="logical" name="LMUSIC"> F  </i>
   <v name="POMASS">     12.01100000     16.00000000</v>
   <v name="DARWINR">      0.00000000      0.00000000</v>
   <v name="DARWINV">      1.00000000      1.00000000</v>
   <i type="logical" name="LCORR"> T  </i>
  </separator>
  <i type="logical" name="GGA_COMPAT"> T  </i>
  <i type="logical" name="LBERRY"> F  </i>
  <i type="int" name="ICORELEVEL">     0</i>
  <i type="logical" name="LDAU"> F  </i>
  <i type="int" name="I_CONSTRAINED_M">     0</i>
  <separator name="electronic exchange-correlation" >
   <i type="string" name="GGA    ">RP</i>
   <i type="string" name="XC_C">1</i>
   <i type="int" name="VOSKOWN">     0</i>
   <i type="logical" name="LHFCALC"> F  </i>
   <i type="string" name="PRECFOCK"></i>
   <i type="logical" name="LSYMGRAD"> F  </i>
   <i type="logical" name="LHFONE"> F  </i>
   <i type="logical" name="LRHFCALC"> F  </i>
   <i type="logical" name="LTHOMAS"> F  </i>
   <i type="logical" name="LMODELHF"> F  </i>
   <i type="logical" name="LFOCKACE"> F  </i>
   <i name="ENCUT4O">     -1.00000000</i>
   <i type="int" name="EXXOEP">     0</i>
   <i type="int" name="FOURORBIT">     0</i>
   <i name="AEXX">      0.00000000</i>
   <i name="HFALPHA">      0.00000000</i>
   <i name="MCALPHA">      0.00000000</i>
   <i name="ALDAX">      1.00000000</i>
   <i name="AGGAX">      1.00000000</i>
   <i name="AMGGAX">      1.00000000</i>
   <i name="ALDAC">      1.00000000</i>
   <i name="AGGAC">      1.00000000</i>
   <i name="AMGGAC">      1.00000000</i>
   <i type="int" name="NKREDX">     1</i>
   <i type="int" name="NKREDY">     1</i>
   <i type="int" name="NKREDZ">     1</i>
   <i type="logical" name="SHIFTRED"> F  </i>
   <i type="logical" name="ODDONLY"> F  </i>
   <i type="logical" name="EVENONLY"> F  </i>
   <i type="int" name="LMAXFOCK">     0</i>
   <i type="int" name="NMAXFOCKAE">     0</i>
   <i type="logical" name="LFOCKAEDFT"> F  </i>
   <i name="HFSCREEN">      0.00000000</i>
   <i name="HFSCREENC">      0.00000000</i>
   <i type="int" name="NBANDSGWLOW">     0</i>
  </separator>
  <separator name="vdW DFT" >
   <i type="logical" name="LUSE_VDW"> F  </i>
   <i type="int" name="IVDW_NL">    -1</i>
   <i type="logical" name="LSPIN_VDW"> F  </i>
   <i name="ZAB_VDW">     -0.84910000</i>
   <i name="GAMMA_VDW">      1.39626340</i>
   <i name="ALPHA_VDW">      0.00000000</i>
   <i name="PARAM1">      0.12340000</i>
   <i name="PARAM2">      1.00000000</i>
   <i name="BPARAM">      6.30000000</i>
   <i name="CPARAM">      0.00930000</i>
  </separator>
  <separator name="model GW" >
   <i type="int" name="MODEL_GW">     0</i>
   <i name="MODEL_EPS0">   1012.50000000</i>
   <i name="MODEL_ALPHA">      1.00000000</i>
  </separator>
  <separator name="linear response parameters" >
   <i type="logical" name="LEPSILON"> F  </i>
   <i type="logical" name="LRPA"> F  </i>
   <i type="logical" name="LNABLA"> F  </i>
   <i type="logical" name="LVEL"> F  </i>
   <i name="CSHIFT">      0.10000000</i>
   <i name="OMEGAMAX">     -1.00000000</i>
   <i name="DEG_THRESHOLD">      0.00200000</i>
   <i name="RTIME">     -0.10000000</i>
   <i name="WPLASMAI">      0.00000000</i>
   <v name="DFIELD">      0.00000000      0.00000000      0.00000000</v>
   <v name="WPLASMA">      0.00000000      0.00000000      0.00000000      0.00000000      0.00000000      0.00000000      0.00000000      0.00000000      0.00000000</v>
  </separator>
  <separator name="orbital magnetization" >
   <i type="logical" name="NUCIND"> F  </i>
   <v name="MAGPOS">      0.00000000      0.00000000      0.00000000</v>
   <i type="logical" name="LNICSALL"> T  </i>
   <i type="logical" name="ORBITALMAG"> F  </i>
   <i type="logical" name="LMAGBLOCH"> F  </i>
   <i type="logical" name="LCHIMAG"> F  </i>
   <i type="logical" name="LGAUGE"> T  </i>
   <i type="int" name="MAGATOM">     0</i>
   <v name="MAGDIPOL">      0.00000000      0.00000000      0.00000000</v>
   <v name="AVECCONST">      0.00000000      0.00000000      0.00000000</v>
  </separator>
  <separator name="response functions" >
   <i type="logical" name="LALL_IN_ONE"> F  </i>
   <i type="int" name="IALL_IN_ONE">    -1</i>
   <i type="int" name="NBANDS_WAVE">    -1</i>
   <i type="logical" name="LFINITE_TEMPERATURE"> F  </i>
   <i type="logical" name="LADDER"> F  </i>
   <i type="logical" name="LRPAFORCE"> F  </i>
   <i type="logical" name="LFXC"> F  </i>
   <i type="logical" name="LHARTREE"> T  </i>
   <i type="int" name="IBSE">     2</i>
   <v type="int" name="KPOINT">    -1     0     0     0</v>
   <i type="logical" name="LTCTC"> F  </i>
   <i type="logical" name="LTCTE"> F  </i>
   <i type="logical" name="LTETE"> F  </i>
   <i type="logical" name="LTRIPLET"> F  </i>
   <i type="logical" name="LFXCEPS"> F  </i>
   <i type="logical" name="LFXHEG"> F  </i>
   <i type="int" name="NATURALO">     2</i>
   <i type="logical" name="LHOLEGF"> F  </i>
   <i type="logical" name="L2ORDER"> F  </i>
   <i type="logical" name="LDMP1"> F  </i>
   <i type="logical" name="LMP2LT"> F  </i>
   <i type="logical" name="LSMP2LT"> F  </i>
   <i type="logical" name="LGWLF"> F  </i>
   <i name="ENCUTGW">     -1.60000002</i>
   <i name="ENCUTGWSOFT">     -1.60000002</i>
   <i name="ENCUTLF">     -1.00000000</i>
   <i type="logical" name="ESF_SPLINES"> F  </i>
   <i name="ESF_CONV">      0.01000000</i>
   <i type="int" name="ESF_NINTER">    15</i>
   <i type="int" name="LMAXMP2">    -1</i>
   <i name="SCISSOR">      0.00000000</i>
   <i type="int" name="NOMEGA">     0</i>
   <i type="int" name="NOMEGAR">     0</i>
   <i type="int" name="NBANDSGW">    -1</i>
   <i type="int" name="NBANDSO">    -1</i>
   <i type="int" name="NBANDSV">    -1</i>
   <i type="int" name="NELMGW">     1</i>
   <i type="int" name="NELMHF">     1</i>
   <i type="int" name="DIM">     3</i>
   <i type="int" name="IESPILON">     4</i>
   <i type="int" name="ANTIRES">     0</i>
   <i name="OMEGAMAX">    -30.00000000</i>
   <i name="OMEGAMIN">    -30.00000000</i>
   <i name="OMEGATL">   -200.00000000</i>
   <i type="int" name="OMEGAGRID">     0</i>
   <i name="CSHIFT">     -0.10000000</i>
   <i type="logical" name="LSELFENERGY"> F  </i>
   <i type="logical" name="LSPECTRAL"> F  </i>
   <i type="logical" name="LSPECTRALGW"> F  </i>
   <i type="logical" name="LSINGLES"> F  </i>
   <i type="logical" name="LFERMIGW"> F  </i>
   <i type="logical" name="ODDONLYGW"> F  </i>
   <i type="logical" name="EVENONLYGW"> F  </i>
   <i type="int" name="NKREDLFX">     1</i>
   <i type="int" name="NKREDLFY">     1</i>
   <i type="int" name="NKREDLFZ">     1</i>
   <i type="int" name="MAXMEM">  2800</i>
   <i type="int" name="TELESCOPE">     0</i>
   <i type="int" name="NTAUPAR">    -1</i>
   <i type="int" name="NOMEGAPAR">    -1</i>
   <i name="DAMP_NEWTON">      0.80000001</i>
   <i name="LAMBDA">      1.00000000</i>
  </separator>
  <separator name="External order field" >
   <i name="OFIELD_KAPPA">      0.00000000</i>
   <v name="OFIELD_K">      0.00000000      0.00000000      0.00000000</v>
   <i name="OFIELD_Q6_NEAR">      0.00000000</i>
   <i name="OFIELD_Q6_FAR">      0.00000000</i>
   <i name="OFIELD_A">      0.00000000</i>
  </separator>
  <separator name="optional k-points parameters" >
   <i type="int" name="KPOINTS_OPT_MODE">     1</i>
   <i type="logical" name="LKPOINTS_OPT"> F  </i>
  </separator>
 </parameters>
 <atominfo>
  <atoms>       2 </atoms>
  <types>       2 </types>
  <array name="atoms" >
   <dimension dim="1">ion</dimension>
   <field type="string">element</field>
   <field type="int">atomtype</field>
   <set>
    <rc><c>C </c><c>   1</c></rc>
    <rc><c>O </c><c>   2</c></rc>
   </set>
  </array>
  <array name="atomtypes" >
   <dimension dim="1">type</dimension>
   <field type="int">atomspertype</field>
   <field type="string">element</field>
   <field>mass</field>
   <field>valence</field>
   <field type="string">pseudopotential</field>
   <set>
    <rc><c>   1</c><c>C </c><c>     12.01100000</c><c>      4.00000000</c><c>  PAW_PBE C 08Apr2002                   </c></rc>
    <rc><c>   1</c><c>O </c><c>     16.00000000</c><c>      6.00000000</c><c>  PAW_PBE O 08Apr2002                   </c></rc>
   </set>
  </array>
 </atominfo>
 <structure name="initialpos" >
  <crystal>
   <varray name="basis" >
    <v>      15.00000000       0.00000000       0.00000000 </v>
    <v>       0.00000000      15.00000000       0.00000000 </v>
    <v>       0.00000000       0.00000000      15.00000000 </v>
   </varray>
   <i name="volume">   3375.00000000 </i>
   <varray name="rec_basis" >
    <v>       0.06666667       0.00000000       0.00000000 </v>
    <v>       0.00000000       0.06666667       0.00000000 </v>
    <v>       0.00000000       0.00000000       0.06666667 </v>
   </varray>
  </crystal>
  <varray name="positions" >
   <v>       0.50000000       0.50000000       0.50000000 </v>
   <v>       0.50000000       0.50000000       0.57620000 </v>
  </varray>
 </structure>
 <calculation>
  <scstep>
   <time name="dav">    0.16    0.16</time>
   <time name="total">    0.20    0.20</time>
   <energy>
    <i name="alphaZ">      0.12946890 </i>
    <i name="ewald">    166.45206973 </i>
    <i name="hartreedc">   -626.42524156 </i>
    <i name="XCdc">     38.76391617 </i>
    <i name="pawpsdc">    455.60883210 </i>
    <i name="pawaedc">   -457.68791433 </i>
    <i name="eentropy">     -0.00000000 </i>
    <i name="bandstr">    -98.78613411 </i>
    <i name="atom">    579.52787388 </i>
    <i name="e_fr_energy">     57.58287078 </i>
    <i name="e_wo_entrp">     57.58287078 </i>
    <i name="e_0_energy">     57.58287078 </i>
   </energy>
  </scstep>
  <scstep>
   <time name="dav">    0.03    0.03</time>
   <time name="total">    0.03    0.03</time>
   <energy>
    <i name="e_fr_energy">     -7.72928549 </i>
    <i name="e_wo_entrp">     -7.72928549 </i>
    <i name="e_0_energy">     -7.72928549 </i>
   </energy>
  </scstep>
  <scstep>
   <time name="dav">    0.02    0.03</time>
   <time name="total">    0.03    0.03</time>
   <energy>
    <i name="e_fr_energy">    -15.03443185 </i>
    <i name="e_wo_entrp">    -15.03443185 </i>
    <i name="e_0_energy">    -15.03443185 </i>
   </energy>
  </scstep>
  <scstep>
   <time name="dav">    0.04    0.04</time>
   <time name="total">    0.04    0.04</time>
   <energy>
    <i name="e_fr_energy">    -15.22788338 </i>
    <i name="e_wo_entrp">    -15.22788338 </i>
    <i name="e_0_energy">    -15.22788338 </i>
   </energy>
  </scstep>
  <scstep>
   <time name="dav">    0.03    0.03</time>
   <time name="total">    0.16    0.17</time>
   <energy>
    <i name="e_fr_energy">    -15.22809670 </i>
    <i name="e_wo_entrp">    -15.22809670 </i>
    <i name="e_0_energy">    -15.22809670 </i>
   </energy>
  </scstep>
  <scstep>
   <time name="dav">    0.02    0.02</time>
   <time name="total">    0.16    0.16</time>
   <energy>
    <i name="e_fr_energy">    -14.58248252 </i>
    <i name="e_wo_entrp">    -14.58248252 </i>
    <i name="e_0_energy">    -14.58248252 </i>
   </energy>
  </scstep>
  <scstep>
   <time name="dav">    0.02    0.02</time>
   <time name="total">    0.16    0.16</time>
   <energy>
    <i name="e_fr_energy">    -14.45357653 </i>
    <i name="e_wo_entrp">    -14.45357653 </i>
    <i name="e_0_energy">    -14.45357653 </i>
   </energy>
  </scstep>
  <scstep>
   <time name="dav">    0.02    0.02</time>
   <time name="total">    0.16    0.16</time>
   <energy>
    <i name="e_fr_energy">    -14.42094594 </i>
    <i name="e_wo_entrp">    -14.42094594 </i>
    <i name="e_0_energy">    -14.42094594 </i>
   </energy>
  </scstep>
  <scstep>
   <time name="dav">    0.03    0.03</time>
   <time name="total">    0.17    0.17</time>
   <energy>
    <i name="e_fr_energy">    -14.42067549 </i>
    <i name="e_wo_entrp">    -14.42067549 </i>
    <i name="e_0_energy">    -14.42067549 </i>
   </energy>
  </scstep>
  <scstep>
   <time name="dav">    0.02    0.02</time>
   <time name="total">    0.16    0.16</time>
   <energy>
    <i name="e_fr_energy">    -14.42171741 </i>
    <i name="e_wo_entrp">    -14.42171741 </i>
    <i name="e_0_energy">    -14.42171741 </i>
   </energy>
  </scstep>
  <scstep>
   <time name="dav">    0.02    0.02</time>
   <time name="total">    0.18    0.18</time>
   <energy>
    <i name="e_fr_energy">    -14.42378059 </i>
    <i name="e_wo_entrp">    -14.42378059 </i>
    <i name="e_0_energy">    -14.42378059 </i>
   </energy>
  </scstep>
  <scstep>
   <time name="dav">    0.02    0.02</time>
   <time name="total">    0.18    0.18</time>
   <energy>
    <i name="e_fr_energy">    -14.42462352 </i>
    <i name="e_wo_entrp">    -14.42462352 </i>
    <i name="e_0_energy">    -14.42462352 </i>
   </energy>
  </scstep>
  <scstep>
   <time name="dav">    0.02    0.02</time>
   <time name="total">    0.18    0.18</time>
   <energy>
    <i name="e_fr_energy">    -14.42548983 </i>
    <i name="e_wo_entrp">    -14.42548983 </i>
    <i name="e_0_energy">    -14.42548983 </i>
   </energy>
  </scstep>
  <scstep>
   <time name="dav">    0.03    0.03</time>
   <time name="total">    0.18    0.18</time>
   <energy>
    <i name="e_fr_energy">    -14.42579133 </i>
    <i name="e_wo_entrp">    -14.42579133 </i>
    <i name="e_0_energy">    -14.42579133 </i>
   </energy>
  </scstep>
  <scstep>
   <time name="dav">    0.03    0.03</time>
   <time name="total">    0.18    0.18</time>
   <energy>
    <i name="e_fr_energy">    -14.42611823 </i>
    <i name="e_wo_entrp">    -14.42611823 </i>
    <i name="e_0_energy">    -14.42611823 </i>
   </energy>
  </scstep>
  <scstep>
   <time name="dav">    0.02    0.02</time>
   <time name="total">    0.18    0.18</time>
   <energy>
    <i name="e_fr_energy">    -14.42620014 </i>
    <i name="e_wo_entrp">    -14.42620014 </i>
    <i name="e_0_energy">    -14.42620014 </i>
   </energy>
  </scstep>
  <scstep>
   <time name="dav">    0.02    0.02</time>
   <time name="total">    0.18    0.18</time>
   <energy>
    <i name="e_fr_energy">    -14.42624752 </i>
    <i name="e_wo_entrp">    -14.42624752 </i>
    <i name="e_0_energy">    -14.42624752 </i>
   </energy>
  </scstep>
  <scstep>
   <time name="dav">    0.02    0.02</time>
   <time name="total">    0.18    0.18</time>
   <energy>
    <i name="e_fr_energy">    -14.42625948 </i>
    <i name="e_wo_entrp">    -14.42625948 </i>
    <i name="e_0_energy">    -14.42625948 </i>
   </energy>
  </scstep>
  <scstep>
   <time name="dav">    0.02    0.02</time>
   <time name="total">    0.18    0.18</time>
   <energy>
    <i name="e_fr_energy">    -14.42626580 </i>
    <i name="e_wo_entrp">    -14.42626580 </i>
    <i name="e_0_energy">    -14.42626580 </i>
   </energy>
  </scstep>
  <scstep>
   <time name="dav">    0.02    0.02</time>
   <time name="total">    0.18    0.18</time>
   <energy>
    <i name="e_fr_energy">    -14.42626767 </i>
    <i name="e_wo_entrp">    -14.42626767 </i>
    <i name="e_0_energy">    -14.42626767 </i>
   </energy>
  </scstep>
  <scstep>
   <time name="dav">    0.02    0.02</time>
   <time name="total">    0.05    0.05</time>
   <energy>
    <i name="alphaZ">      0.12946890 </i>
    <i name="ewald">    166.45206973 </i>
    <i name="hartreedc">   -647.33259481 </i>
    <i name="XCdc">     39.97992063 </i>
    <i name="pawpsdc">    877.40242767 </i>
    <i name="pawaedc">   -879.50382807 </i>
    <i name="eentropy">     -0.00000000 </i>
    <i name="bandstr">   -151.08160621 </i>
    <i name="atom">    579.52787388 </i>
    <i name="e_fr_energy">    -14.42626829 </i>
    <i name="e_wo_entrp">    -14.42626829 </i>
    <i name="e_0_energy">    -14.42626829 </i>
   </energy>
  </scstep>
  <structure>
   <crystal>
    <varray name="basis" >
     <v>      15.00000000       0.00000000       0.00000000 </v>
     <v>       0.00000000      15.00000000       0.00000000 </v>
     <v>       0.00000000       0.00000000      15.00000000 </v>
    </varray>
    <i name="volume">   3375.00000000 </i>
    <varray name="rec_basis" >
     <v>       0.06666667       0.00000000       0.00000000 </v>
     <v>       0.00000000       0.06666667       0.00000000 </v>
     <v>       0.00000000       0.00000000       0.06666667 </v>
    </varray>
   </crystal>
   <varray name="positions" >
    <v>       0.50000000       0.50000000       0.50000000 </v>
    <v>       0.50000000       0.50000000       0.57620000 </v>
   </varray>
  </structure>
  <varray name="forces" >
   <v>      -0.00000000       0.00000000      -0.59906920 </v>
   <v>       0.00000000       0.00000000       0.59906920 </v>
  </varray>
  <varray name="stress" >
   <v>      -0.09079365       0.00000000       0.00000000 </v>
   <v>       0.00000000      -0.09079365       0.00000000 </v>
   <v>       0.00000000       0.00000000       0.24698488 </v>
  </varray>
  <energy>
   <i name="e_fr_energy">    -14.42626829 </i>
   <i name="e_wo_entrp">    -14.42626829 </i>
   <i name="e_0_energy">    -14.42626829 </i>
  </energy>
  <time name="totalsc">    3.80    3.82</time>
 </calculation>
 <calculation>
  <scstep>
   <time name="dav">    0.02    0.02</time>
   <time name="total">    0.17    0.17</time>
   <energy>
    <i name="alphaZ">      0.12946890 </i>
    <i name="ewald">    151.92746020 </i>
    <i name="hartreedc">   -638.48015466 </i>
    <i name="XCdc">     39.72497255 </i>
    <i name="pawpsdc">    877.39945338 </i>
    <i name="pawaedc">   -879.50085078 </i>
    <i name="eentropy">     -0.00000000 </i>
    <i name="bandstr">   -145.03096469 </i>
    <i name="atom">    579.52787388 </i>
    <i name="e_fr_energy">    -14.30274122 </i>
    <i name="e_wo_entrp">    -14.30274122 </i>
    <i name="e_0_energy">    -14.30274122 </i>
   </energy>
  </scstep>
  <scstep>
   <time name="dav">    0.02    0.03</time>
   <time name="total">    0.17    0.17</time>
   <energy>
    <i name="e_fr_energy">    -14.29665892 </i>
    <i name="e_wo_entrp">    -14.29665892 </i>
    <i name="e_0_energy">    -14.29665892 </i>
   </energy>
  </scstep>
  <scstep>
   <time name="dav">    0.02    0.03</time>
   <time name="total">    0.17    0.17</time>
   <energy>
    <i name="e_fr_energy">    -14.29106312 </i>
    <i name="e_wo_entrp">    -14.29106312 </i>
    <i name="e_0_energy">    -14.29106312 </i>
   </energy>
  </scstep>
  <scstep>
   <time name="dav">    0.03    0.03</time>
   <time name="total">    0.17    0.17</time>
   <energy>
    <i name="e_fr_energy">    -14.29100017 </i>
    <i name="e_wo_entrp">    -14.29100017 </i>
    <i name="e_0_energy">    -14.29100017 </i>
   </energy>
  </scstep>
  <scstep>
   <time name="dav">    0.02    0.02</time>
   <time name="total">    0.16    0.16</time>
   <energy>
    <i name="e_fr_energy">    -14.29117427 </i>
    <i name="e_wo_entrp">    -14.29117427 </i>
    <i name="e_0_energy">    -14.29117427 </i>
   </energy>
  </scstep>
  <scstep>
   <time name="dav">    0.03    0.03</time>
   <time name="total">    0.16    0.17</time>
   <energy>
    <i name="e_fr_energy">    -14.29127249 </i>
    <i name="e_wo_entrp">    -14.29127249 </i>
    <i name="e_0_energy">    -14.29127249 </i>
   </energy>
  </scstep>
  <scstep>
   <time name="dav">    0.02    0.03</time>
   <time name="total">    0.18    0.18</time>
   <energy>
    <i name="e_fr_energy">    -14.29143082 </i>
    <i name="e_wo_entrp">    -14.29143082 </i>
    <i name="e_0_energy">    -14.29143082 </i>
   </energy>
  </scstep>
  <scstep>
   <time name="dav">    0.02    0.03</time>
   <time name="total">    0.18    0.20</time>
   <energy>
    <i name="e_fr_energy">    -14.29154587 </i>
    <i name="e_wo_entrp">    -14.29154587 </i>
    <i name="e_0_energy">    -14.29154587 </i>
   </energy>
  </scstep>
  <scstep>
   <time name="dav">    0.02    0.02</time>
   <time name="total">    0.18    0.18</time>
   <energy>
    <i name="e_fr_energy">    -14.29166703 </i>
    <i name="e_wo_entrp">    -14.29166703 </i>
    <i name="e_0_energy">    -14.29166703 </i>
   </energy>
  </scstep>
  <scstep>
   <time name="dav">    0.03    0.03</time>
   <time name="total">    0.19    0.19</time>
   <energy>
    <i name="e_fr_energy">    -14.29171979 </i>
    <i name="e_wo_entrp">    -14.29171979 </i>
    <i name="e_0_energy">    -14.29171979 </i>
   </energy>
  </scstep>
  <scstep>
   <time name="dav">    0.02    0.02</time>
   <time name="total">    0.18    0.18</time>
   <energy>
    <i name="e_fr_energy">    -14.29175155 </i>
    <i name="e_wo_entrp">    -14.29175155 </i>
    <i name="e_0_energy">    -14.29175155 </i>
   </energy>
  </scstep>
  <scstep>
   <time name="dav">    0.02    0.02</time>
   <time name="total">    0.18    0.18</time>
   <energy>
    <i name="e_fr_energy">    -14.29176666 </i>
    <i name="e_wo_entrp">    -14.29176666 </i>
    <i name="e_0_energy">    -14.29176666 </i>
   </energy>
  </scstep>
  <scstep>
   <time name="dav">    0.02    0.02</time>
   <time name="total">    0.18    0.18</time>
   <energy>
    <i name="e_fr_energy">    -14.29177159 </i>
    <i name="e_wo_entrp">    -14.29177159 </i>
    <i name="e_0_energy">    -14.29177159 </i>
   </energy>
  </scstep>
  <scstep>
   <time name="dav">    0.02    0.02</time>
   <time name="total">    0.18    0.18</time>
   <energy>
    <i name="e_fr_energy">    -14.29177322 </i>
    <i name="e_wo_entrp">    -14.29177322 </i>
    <i name="e_0_energy">    -14.29177322 </i>
   </energy>
  </scstep>
  <scstep>
   <time name="dav">    0.02    0.02</time>
   <time name="total">    0.05    0.05</time>
   <energy>
    <i name="alphaZ">      0.12946890 </i>
    <i name="ewald">    151.92746020 </i>
    <i name="hartreedc">   -635.52546839 </i>
    <i name="XCdc">     39.55539657 </i>
    <i name="pawpsdc">    785.00132571 </i>
    <i name="pawaedc">   -787.04967293 </i>
    <i name="eentropy">     -0.00000000 </i>
    <i name="bandstr">   -147.85815779 </i>
    <i name="atom">    579.52787388 </i>
    <i name="e_fr_energy">    -14.29177386 </i>
    <i name="e_wo_entrp">    -14.29177386 </i>
    <i name="e_0_energy">    -14.29177386 </i>
   </energy>
  </scstep>
  <structure>
   <crystal>
    <varray name="basis" >
     <v>      15.00000000       0.00000000       0.00000000 </v>
     <v>       0.00000000      15.00000000       0.00000000 </v>
     <v>       0.00000000       0.00000000      15.00000000 </v>
    </varray>
    <i name="volume">   3375.00000000 </i>
    <varray name="rec_basis" >
     <v>       0.06666667       0.00000000       0.00000000 </v>
     <v>       0.00000000       0.06666667       0.00000000 </v>
     <v>       0.00000000       0.00000000       0.06666667 </v>
    </varray>
   </crystal>
   <varray name="positions" >
    <v>       0.50000000       0.50000000       0.49807329 </v>
    <v>       0.50000000       0.50000000       0.57812671 </v>
   </varray>
  </structure>
  <varray name="forces" >
   <v>      -0.00000000       0.00000000       4.86622752 </v>
   <v>       0.00000000      -0.00000000      -4.86622752 </v>
  </varray>
  <varray name="stress" >
   <v>      -0.09137149      -0.00000000       0.00000000 </v>
   <v>       0.00000000      -0.09137149       0.00000000 </v>
   <v>       0.00000000       0.00000000      -2.84685640 </v>
  </varray>
  <energy>
   <i name="e_fr_energy">    -14.29177386 </i>
   <i name="e_wo_entrp">    -14.29177386 </i>
   <i name="e_0_energy">    -14.29177386 </i>
  </energy>
  <time name="totalsc">    3.16    3.20</time>
 </calculation>
 <calculation>
  <scstep>
   <time name="dav">    0.02    0.02</time>
   <time name="total">    0.17    0.17</time>
   <energy>
    <i name="alphaZ">      0.12946890 </i>
    <i name="ewald">    165.05596517 </i>
    <i name="hartreedc">   -643.46630408 </i>
    <i name="XCdc">     39.78295333 </i>
    <i name="pawpsdc">    785.00015631 </i>
    <i name="pawaedc">   -787.04850182 </i>
    <i name="eentropy">     -0.00000000 </i>
    <i name="bandstr">   -153.41473874 </i>
    <i name="atom">    579.52787388 </i>
    <i name="e_fr_energy">    -14.43312705 </i>
    <i name="e_wo_entrp">    -14.43312705 </i>
    <i name="e_0_energy">    -14.43312705 </i>
   </energy>
  </scstep>
  <scstep>
   <time name="dav">    0.02    0.02</time>
   <time name="total">    0.17    0.17</time>
   <energy>
    <i name="e_fr_energy">    -14.43258832 </i>
    <i name="e_wo_entrp">    -14.43258832 </i>
    <i name="e_0_energy">    -14.43258832 </i>
   </energy>
  </scstep>
  <scstep>
   <time name="dav">    0.03    0.03</time>
   <time name="total">    0.17    0.17</time>
   <energy>
    <i name="e_fr_energy">    -14.42725668 </i>
    <i name="e_wo_entrp">    -14.42725668 </i>
    <i name="e_0_energy">    -14.42725668 </i>
   </energy>
  </scstep>
  <scstep>
   <time name="dav">    0.02    0.02</time>
   <time name="total">    0.16    0.16</time>
   <energy>
    <i name="e_fr_energy">    -14.42702331 </i>
    <i name="e_wo_entrp">    -14.42702331 </i>
    <i name="e_0_energy">    -14.42702331 </i>
   </energy>
  </scstep>
  <scstep>
   <time name="dav">    0.02    0.02</time>
   <time name="total">    0.16    0.16</time>
   <energy>
    <i name="e_fr_energy">    -14.42714032 </i>
    <i name="e_wo_entrp">    -14.42714032 </i>
    <i name="e_0_energy">    -14.42714032 </i>
   </energy>
  </scstep>
  <scstep>
   <time name="dav">    0.02    0.02</time>
   <time name="total">    0.17    0.17</time>
   <energy>
    <i name="e_fr_energy">    -14.42724823 </i>
    <i name="e_wo_entrp">    -14.42724823 </i>
    <i name="e_0_energy">    -14.42724823 </i>
   </energy>
  </scstep>
  <scstep>
   <time name="dav">    0.02    0.02</time>
   <time name="total">    0.17    0.17</time>
   <energy>
    <i name="e_fr_energy">    -14.42742941 </i>
    <i name="e_wo_entrp">    -14.42742941 </i>
    <i name="e_0_energy">    -14.42742941 </i>
   </energy>
  </scstep>
  <scstep>
   <time name="dav">    0.03    0.03</time>
   <time name="total">    0.18    0.18</time>
   <energy>
    <i name="e_fr_energy">    -14.42756586 </i>
    <i name="e_wo_entrp">    -14.42756586 </i>
    <i name="e_0_energy">    -14.42756586 </i>
   </energy>
  </scstep>
  <scstep>
   <time name="dav">    0.03    0.03</time>
   <time name="total">    0.18    0.18</time>
   <energy>
    <i name="e_fr_energy">    -14.42772530 </i>
    <i name="e_wo_entrp">    -14.42772530 </i>
    <i name="e_0_energy">    -14.42772530 </i>
   </energy>
  </scstep>
  <scstep>
   <time name="dav">    0.02    0.03</time>
   <time name="total">    0.18    0.18</time>
   <energy>
    <i name="e_fr_energy">    -14.42777826 </i>
    <i name="e_wo_entrp">    -14.42777826 </i>
    <i name="e_0_energy">    -14.42777826 </i>
   </energy>
  </scstep>
  <scstep>
   <time name="dav">    0.03    0.03</time>
   <time name="total">    0.19    0.19</time>
   <energy>
    <i name="e_fr_energy">    -14.42781224 </i>
    <i name="e_wo_entrp">    -14.42781224 </i>
    <i name="e_0_energy">    -14.42781224 </i>
   </energy>
  </scstep>
  <scstep>
   <time name="dav">    0.02    0.02</time>
   <time name="total">    0.18    0.18</time>
   <energy>
    <i name="e_fr_energy">    -14.42782382 </i>
    <i name="e_wo_entrp">    -14.42782382 </i>
    <i name="e_0_energy">    -14.42782382 </i>
   </energy>
  </scstep>
  <scstep>
   <time name="dav">    0.03    0.03</time>
   <time name="total">    0.19    0.19</time>
   <energy>
    <i name="e_fr_energy">    -14.42783199 </i>
    <i name="e_wo_entrp">    -14.42783199 </i>
    <i name="e_0_energy">    -14.42783199 </i>
   </energy>
  </scstep>
  <scstep>
   <time name="dav">    0.02    0.02</time>
   <time name="total">    0.18    0.18</time>
   <energy>
    <i name="e_fr_energy">    -14.42783454 </i>
    <i name="e_wo_entrp">    -14.42783454 </i>
    <i name="e_0_energy">    -14.42783454 </i>
   </energy>
  </scstep>
  <scstep>
   <time name="dav">    0.02    0.03</time>
   <time name="total">    0.05    0.05</time>
   <energy>
    <i name="alphaZ">      0.12946890 </i>
    <i name="ewald">    165.05596517 </i>
    <i name="hartreedc">   -646.20819463 </i>
    <i name="XCdc">     39.93898320 </i>
    <i name="pawpsdc">    868.07322319 </i>
    <i name="pawaedc">   -870.16903280 </i>
    <i name="eentropy">     -0.00000000 </i>
    <i name="bandstr">   -150.77612217 </i>
    <i name="atom">    579.52787388 </i>
    <i name="e_fr_energy">    -14.42783526 </i>
    <i name="e_wo_entrp">    -14.42783526 </i>
    <i name="e_0_energy">    -14.42783526 </i>
   </energy>
  </scstep>
  <structure>
   <crystal>
    <varray name="basis" >
     <v>      15.00000000       0.00000000       0.00000000 </v>
     <v>       0.00000000      15.00000000       0.00000000 </v>
     <v>       0.00000000       0.00000000      15.00000000 </v>
    </varray>
    <i name="volume">   3375.00000000 </i>
    <varray name="rec_basis" >
     <v>       0.06666667       0.00000000       0.00000000 </v>
     <v>       0.00000000       0.06666667       0.00000000 </v>
     <v>       0.00000000       0.00000000       0.06666667 </v>
    </varray>
   </crystal>
   <varray name="positions" >
    <v>       0.50000000       0.50000000       0.49982292 </v>
    <v>       0.50000000       0.50000000       0.57637708 </v>
   </varray>
  </structure>
  <varray name="forces" >
   <v>      -0.00000000       0.00000000       0.00436308 </v>
   <v>       0.00000000       0.00000000      -0.00436308 </v>
  </varray>
  <varray name="stress" >
   <v>      -0.09067494       0.00000000       0.00000000 </v>
   <v>       0.00000000      -0.09067494      -0.00000000 </v>
   <v>      -0.00000000       0.00000000      -0.07982721 </v>
  </varray>
  <energy>
   <i name="e_fr_energy">    -14.42783526 </i>
   <i name="e_wo_entrp">    -14.42783526 </i>
   <i name="e_0_energy">    -14.42783526 </i>
  </energy>
  <time name="totalsc">    3.03    3.04</time>
  <eigenvalues>
   <array>
    <dimension dim="1">band</dimension>
    <dimension dim="2">kpoint</dimension>
    <dimension dim="3">spin</dimension>
    <field>eigene</field>
    <field>occ</field>
    <set>
     <set comment="spin 1">
      <set comment="kpoint 1">
       <r>  -29.1697    1.0000 </r>
       <r>  -14.0064    1.0000 </r>
       <r>  -11.6027    1.0000 </r>
       <r>  -11.6027    1.0000 </r>
       <r>   -9.0067    1.0000 </r>
       <r>   -2.1126    0.0000 </r>
       <r>   -2.1126    0.0000 </r>
       <r>   -0.1791    0.0000 </r>
       <r>    0.3584    0.0000 </r>
      </set>
     </set>
    </set>
   </array>
  </eigenvalues>
  <separator name="orbital magnetization" >
   <v name="MAGDIPOLOUT">      0.00000000      0.00000000      0.00000000</v>
  </separator>
  <dos>
   <i name="efermi">     -8.93800618 </i>
   <total>
    <array>
     <dimension dim="1">gridpoints</dimension>
     <dimension dim="2">spin</dimension>
     <field>energy</field>
     <field>total</field>
     <field>integrated</field>
     <set>
      <set comment="spin 1">
       <r>   -30.6461     0.0000     0.0000 </r>
       <r>   -30.5378     0.0000     0.0000 </r>
       <r>   -30.4295     0.0000     0.0000 </r>
       <r>   -30.3212     0.0000     0.0000 </r>
       <r>   -30.2130     0.0000     0.0000 </r>
       <r>   -30.1047     0.0000     0.0000 </r>
       <r>   -29.9964     0.0000     0.0000 </r>
       <r>   -29.8882     0.0000     0.0000 </r>
       <r>   -29.7799     0.0000     0.0000 </r>
       <r>   -29.6716     0.0000     0.0000 </r>
       <r>   -29.5634     0.0000     0.0000 </r>
       <r>   -29.4551     0.0000     0.0000 </r>
       <r>   -29.3468     0.0000     0.0000 </r>
       <r>   -29.2386     0.0000     0.0000 </r>
       <r>   -29.1303    18.4724     2.0000 </r>
       <r>   -29.0220     0.0000     2.0000 </r>
       <r>   -28.9137     0.0000     2.0000 </r>
       <r>   -28.8055     0.0000     2.0000 </r>
       <r>   -28.6972     0.0000     2.0000 </r>
       <r>   -28.5889     0.0000     2.0000 </r>
       <r>   -28.4807     0.0000     2.0000 </r>
       <r>   -28.3724     0.0000     2.0000 </r>
       <r>   -28.2641     0.0000     2.0000 </r>
       <r>   -28.1559     0.0000     2.0000 </r>
       <r>   -28.0476     0.0000     2.0000 </r>
       <r>   -27.9393     0.0000     2.0000 </r>
       <r>   -27.8310     0.0000     2.0000 </r>
       <r>   -27.7228     0.0000     2.0000 </r>
       <r>   -27.6145     0.0000     2.0000 </r>
       <r>   -27.5062     0.0000     2.0000 </r>
       <r>   -27.3980     0.0000     2.0000 </r>
       <r>   -27.2897     0.0000     2.0000 </r>
       <r>   -27.1814     0.0000     2.0000 </r>
       <r>   -27.0732     0.0000     2.0000 </r>
       <r>   -26.9649     0.0000     2.0000 </r>
       <r>   -26.8566     0.0000     2.0000 </r>
       <r>   -26.7484     0.0000     2.0000 </r>
       <r>   -26.6401     0.0000     2.0000 </r>
       <r>   -26.5318     0.0000     2.0000 </r>
       <r>   -26.4235     0.0000     2.0000 </r>
       <r>   -26.3153     0.0000     2.0000 </r>
       <r>   -26.2070     0.0000     2.0000 </r>
       <r>   -26.0987     0.0000     2.0000 </r>
       <r>   -25.9905     0.0000     2.0000 </r>
       <r>   -25.8822     0.0000     2.0000 </r>
       <r>   -25.7739     0.0000     2.0000 </r>
       <r>   -25.6657     0.0000     2.0000 </r>
       <r>   -25.5574     0.0000     2.0000 </r>
       <r>   -25.4491     0.0000     2.0000 </r>
       <r>   -25.3408     0.0000     2.0000 </r>
       <r>   -25.2326     0.0000     2.0000 </r>
       <r>   -25.1243     0.0000     2.0000 </r>
       <r>   -25.0160     0.0000     2.0000 </r>
       <r>   -24.9078     0.0000     2.0000 </r>
       <r>   -24.7995     0.0000     2.0000 </r>
       <r>   -24.6912     0.0000     2.0000 </r>
       <r>   -24.5830     0.0000     2.0000 </r>
       <r>   -24.4747     0.0000     2.0000 </r>
       <r>   -24.3664     0.0000     2.0000 </r>
       <r>   -24.2582     0.0000     2.0000 </r>
       <r>   -24.1499     0.0000     2.0000 </r>
       <r>   -24.0416     0.0000     2.0000 </r>
       <r>   -23.9333     0.0000     2.0000 </r>
       <r>   -23.8251     0.0000     2.0000 </r>
       <r>   -23.7168     0.0000     2.0000 </r>
       <r>   -23.6085     0.0000     2.0000 </r>
       <r>   -23.5003     0.0000     2.0000 </r>
       <r>   -23.3920     0.0000     2.0000 </r>
       <r>   -23.2837     0.0000     2.0000 </r>
       <r>   -23.1755     0.0000     2.0000 </r>
       <r>   -23.0672     0.0000     2.0000 </r>
       <r>   -22.9589     0.0000     2.0000 </r>
       <r>   -22.8506     0.0000     2.0000 </r>
       <r>   -22.7424     0.0000     2.0000 </r>
       <r>   -22.6341     0.0000     2.0000 </r>
       <r>   -22.5258     0.0000     2.0000 </r>
       <r>   -22.4176     0.0000     2.0000 </r>
       <r>   -22.3093     0.0000     2.0000 </r>
       <r>   -22.2010     0.0000     2.0000 </r>
       <r>   -22.0928     0.0000     2.0000 </r>
       <r>   -21.9845     0.0000     2.0000 </r>
       <r>   -21.8762     0.0000     2.0000 </r>
       <r>   -21.7680     0.0000     2.0000 </r>
       <r>   -21.6597     0.0000     2.0000 </r>
       <r>   -21.5514     0.0000     2.0000 </r>
       <r>   -21.4431     0.0000     2.0000 </r>
       <r>   -21.3349     0.0000     2.0000 </r>
       <r>   -21.2266     0.0000     2.0000 </r>
       <r>   -21.1183     0.0000     2.0000 </r>
       <r>   -21.0101     0.0000     2.0000 </r>
       <r>   -20.9018     0.0000     2.0000 </r>
       <r>   -20.7935     0.0000     2.0000 </r>
       <r>   -20.6853     0.0000     2.0000 </r>
       <r>   -20.5770     0.0000     2.0000 </r>
       <r>   -20.4687     0.0000     2.0000 </r>
       <r>   -20.3604     0.0000     2.0000 </r>
       <r>   -20.2522     0.0000     2.0000 </r>
       <r>   -20.1439     0.0000     2.0000 </r>
       <r>   -20.0356     0.0000     2.0000 </r>
       <r>   -19.9274     0.0000     2.0000 </r>
       <r>   -19.8191     0.0000     2.0000 </r>
       <r>   -19.7108     0.0000     2.0000 </r>
       <r>   -19.6026     0.0000     2.0000 </r>
       <r>   -19.4943     0.0000     2.0000 </r>
       <r>   -19.3860     0.0000     2.0000 </r>
       <r>   -19.2778     0.0000     2.0000 </r>
       <r>   -19.1695     0.0000     2.0000 </r>
       <r>   -19.0612     0.0000     2.0000 </r>
       <r>   -18.9529     0.0000     2.0000 </r>
       <r>   -18.8447     0.0000     2.0000 </r>
       <r>   -18.7364     0.0000     2.0000 </r>
       <r>   -18.6281     0.0000     2.0000 </r>
       <r>   -18.5199     0.0000     2.0000 </r>
       <r>   -18.4116     0.0000     2.0000 </r>
       <r>   -18.3033     0.0000     2.0000 </r>
       <r>   -18.1951     0.0000     2.0000 </r>
       <r>   -18.0868     0.0000     2.0000 </r>
       <r>   -17.9785     0.0000     2.0000 </r>
       <r>   -17.8702     0.0000     2.0000 </r>
       <r>   -17.7620     0.0000     2.0000 </r>
       <r>   -17.6537     0.0000     2.0000 </r>
       <r>   -17.5454     0.0000     2.0000 </r>
       <r>   -17.4372     0.0000     2.0000 </r>
       <r>   -17.3289     0.0000     2.0000 </r>
       <r>   -17.2206     0.0000     2.0000 </r>
       <r>   -17.1124     0.0000     2.0000 </r>
       <r>   -17.0041     0.0000     2.0000 </r>
       <r>   -16.8958     0.0000     2.0000 </r>
       <r>   -16.7876     0.0000     2.0000 </r>
       <r>   -16.6793     0.0000     2.0000 </r>
       <r>   -16.5710     0.0000     2.0000 </r>
       <r>   -16.4627     0.0000     2.0000 </r>
       <r>   -16.3545     0.0000     2.0000 </r>
       <r>   -16.2462     0.0000     2.0000 </r>
       <r>   -16.1379     0.0000     2.0000 </r>
       <r>   -16.0297     0.0000     2.0000 </r>
       <r>   -15.9214     0.0000     2.0000 </r>
       <r>   -15.8131     0.0000     2.0000 </r>
       <r>   -15.7049     0.0000     2.0000 </r>
       <r>   -15.5966     0.0000     2.0000 </r>
       <r>   -15.4883     0.0000     2.0000 </r>
       <r>   -15.3800     0.0000     2.0000 </r>
       <r>   -15.2718     0.0000     2.0000 </r>
       <r>   -15.1635     0.0000     2.0000 </r>
       <r>   -15.0552     0.0000     2.0000 </r>
       <r>   -14.9470     0.0000     2.0000 </r>
       <r>   -14.8387     0.0000     2.0000 </r>
       <r>   -14.7304     0.0000     2.0000 </r>
       <r>   -14.6222     0.0000     2.0000 </r>
       <r>   -14.5139     0.0000     2.0000 </r>
       <r>   -14.4056     0.0000     2.0000 </r>
       <r>   -14.2974     0.0000     2.0000 </r>
       <r>   -14.1891     0.0000     2.0000 </r>
       <r>   -14.0808     0.0000     2.0000 </r>
       <r>   -13.9725    18.4724     4.0000 </r>
       <r>   -13.8643     0.0000     4.0000 </r>
       <r>   -13.7560     0.0000     4.0000 </r>
       <r>   -13.6477     0.0000     4.0000 </r>
       <r>   -13.5395     0.0000     4.0000 </r>
       <r>   -13.4312     0.0000     4.0000 </r>
       <r>   -13.3229     0.0000     4.0000 </r>
       <r>   -13.2147     0.0000     4.0000 </r>
       <r>   -13.1064     0.0000     4.0000 </r>
       <r>   -12.9981     0.0000     4.0000 </r>
       <r>   -12.8898     0.0000     4.0000 </r>
       <r>   -12.7816     0.0000     4.0000 </r>
       <r>   -12.6733     0.0000     4.0000 </r>
       <r>   -12.5650     0.0000     4.0000 </r>
       <r>   -12.4568     0.0000     4.0000 </r>
       <r>   -12.3485     0.0000     4.0000 </r>
       <r>   -12.2402     0.0000     4.0000 </r>
       <r>   -12.1320     0.0000     4.0000 </r>
       <r>   -12.0237     0.0000     4.0000 </r>
       <r>   -11.9154     0.0000     4.0000 </r>
       <r>   -11.8072     0.0000     4.0000 </r>
       <r>   -11.6989     0.0000     4.0000 </r>
       <r>   -11.5906    35.3106     7.8231 </r>
       <r>   -11.4823     0.0000     8.0000 </r>
       <r>   -11.3741     0.0000     8.0000 </r>
       <r>   -11.2658     0.0000     8.0000 </r>
       <r>   -11.1575     0.0000     8.0000 </r>
       <r>   -11.0493     0.0000     8.0000 </r>
       <r>   -10.9410     0.0000     8.0000 </r>
       <r>   -10.8327     0.0000     8.0000 </r>
       <r>   -10.7245     0.0000     8.0000 </r>
       <r>   -10.6162     0.0000     8.0000 </r>
       <r>   -10.5079     0.0000     8.0000 </r>
       <r>   -10.3996     0.0000     8.0000 </r>
       <r>   -10.2914     0.0000     8.0000 </r>
       <r>   -10.1831     0.0000     8.0000 </r>
       <r>   -10.0748     0.0000     8.0000 </r>
       <r>    -9.9666     0.0000     8.0000 </r>
       <r>    -9.8583     0.0000     8.0000 </r>
       <r>    -9.7500     0.0000     8.0000 </r>
       <r>    -9.6418     0.0000     8.0000 </r>
       <r>    -9.5335     0.0000     8.0000 </r>
       <r>    -9.4252     0.0000     8.0000 </r>
       <r>    -9.3169     0.0000     8.0000 </r>
       <r>    -9.2087     0.0000     8.0000 </r>
       <r>    -9.1004     0.0000     8.0000 </r>
       <r>    -8.9921    18.1102     9.9608 </r>
       <r>    -8.8839     0.0000    10.0000 </r>
       <r>    -8.7756     0.0000    10.0000 </r>
       <r>    -8.6673     0.0000    10.0000 </r>
       <r>    -8.5591     0.0000    10.0000 </r>
       <r>    -8.4508     0.0000    10.0000 </r>
       <r>    -8.3425     0.0000    10.0000 </r>
       <r>    -8.2343     0.0000    10.0000 </r>
       <r>    -8.1260     0.0000    10.0000 </r>
       <r>    -8.0177     0.0000    10.0000 </r>
       <r>    -7.9094     0.0000    10.0000 </r>
       <r>    -7.8012     0.0000    10.0000 </r>
       <r>    -7.6929     0.0000    10.0000 </r>
       <r>    -7.5846     0.0000    10.0000 </r>
       <r>    -7.4764     0.0000    10.0000 </r>
       <r>    -7.3681     0.0000    10.0000 </r>
       <r>    -7.2598     0.0000    10.0000 </r>
       <r>    -7.1516     0.0000    10.0000 </r>
       <r>    -7.0433     0.0000    10.0000 </r>
       <r>    -6.9350     0.0000    10.0000 </r>
       <r>    -6.8267     0.0000    10.0000 </r>
       <r>    -6.7185     0.0000    10.0000 </r>
       <r>    -6.6102     0.0000    10.0000 </r>
       <r>    -6.5019     0.0000    10.0000 </r>
       <r>    -6.3937     0.0000    10.0000 </r>
       <r>    -6.2854     0.0000    10.0000 </r>
       <r>    -6.1771     0.0000    10.0000 </r>
       <r>    -6.0689     0.0000    10.0000 </r>
       <r>    -5.9606     0.0000    10.0000 </r>
       <r>    -5.8523     0.0000    10.0000 </r>
       <r>    -5.7441     0.0000    10.0000 </r>
       <r>    -5.6358     0.0000    10.0000 </r>
       <r>    -5.5275     0.0000    10.0000 </r>
       <r>    -5.4192     0.0000    10.0000 </r>
       <r>    -5.3110     0.0000    10.0000 </r>
       <r>    -5.2027     0.0000    10.0000 </r>
       <r>    -5.0944     0.0000    10.0000 </r>
       <r>    -4.9862     0.0000    10.0000 </r>
       <r>    -4.8779     0.0000    10.0000 </r>
       <r>    -4.7696     0.0000    10.0000 </r>
       <r>    -4.6614     0.0000    10.0000 </r>
       <r>    -4.5531     0.0000    10.0000 </r>
       <r>    -4.4448     0.0000    10.0000 </r>
       <r>    -4.3365     0.0000    10.0000 </r>
       <r>    -4.2283     0.0000    10.0000 </r>
       <r>    -4.1200     0.0000    10.0000 </r>
       <r>    -4.0117     0.0000    10.0000 </r>
       <r>    -3.9035     0.0000    10.0000 </r>
       <r>    -3.7952     0.0000    10.0000 </r>
       <r>    -3.6869     0.0000    10.0000 </r>
       <r>    -3.5787     0.0000    10.0000 </r>
       <r>    -3.4704     0.0000    10.0000 </r>
       <r>    -3.3621     0.0000    10.0000 </r>
       <r>    -3.2539     0.0000    10.0000 </r>
       <r>    -3.1456     0.0000    10.0000 </r>
       <r>    -3.0373     0.0000    10.0000 </r>
       <r>    -2.9290     0.0000    10.0000 </r>
       <r>    -2.8208     0.0000    10.0000 </r>
       <r>    -2.7125     0.0000    10.0000 </r>
       <r>    -2.6042     0.0000    10.0000 </r>
       <r>    -2.4960     0.0000    10.0000 </r>
       <r>    -2.3877     0.0000    10.0000 </r>
       <r>    -2.2794     0.0000    10.0000 </r>
       <r>    -2.1712     0.0000    10.0000 </r>
       <r>    -2.0629    36.9448    14.0000 </r>
       <r>    -1.9546     0.0000    14.0000 </r>
       <r>    -1.8463     0.0000    14.0000 </r>
       <r>    -1.7381     0.0000    14.0000 </r>
       <r>    -1.6298     0.0000    14.0000 </r>
       <r>    -1.5215     0.0000    14.0000 </r>
       <r>    -1.4133     0.0000    14.0000 </r>
       <r>    -1.3050     0.0000    14.0000 </r>
       <r>    -1.1967     0.0000    14.0000 </r>
       <r>    -1.0885     0.0000    14.0000 </r>
       <r>    -0.9802     0.0000    14.0000 </r>
       <r>    -0.8719     0.0000    14.0000 </r>
       <r>    -0.7637     0.0000    14.0000 </r>
       <r>    -0.6554     0.0000    14.0000 </r>
       <r>    -0.5471     0.0000    14.0000 </r>
       <r>    -0.4388     0.0000    14.0000 </r>
       <r>    -0.3306     0.0000    14.0000 </r>
       <r>    -0.2223     0.0000    14.0000 </r>
       <r>    -0.1140    18.4724    16.0000 </r>
       <r>    -0.0058     0.0000    16.0000 </r>
       <r>     0.1025     0.0000    16.0000 </r>
       <r>     0.2108     0.0000    16.0000 </r>
       <r>     0.3190     0.0000    16.0000 </r>
       <r>     0.4273    18.4724    18.0000 </r>
       <r>     0.5356     0.0000    18.0000 </r>
       <r>     0.6439     0.0000    18.0000 </r>
       <r>     0.7521     0.0000    18.0000 </r>
       <r>     0.8604     0.0000    18.0000 </r>
       <r>     0.9687     0.0000    18.0000 </r>
       <r>     1.0769     0.0000    18.0000 </r>
       <r>     1.1852     0.0000    18.0000 </r>
       <r>     1.2935     0.0000    18.0000 </r>
       <r>     1.4017     0.0000    18.0000 </r>
       <r>     1.5100     0.0000    18.0000 </r>
       <r>     1.6183     0.0000    18.0000 </r>
       <r>     1.7265     0.0000    18.0000 </r>
       <r>     1.8348     0.0000    18.0000 </r>
      </set>
     </set>
    </array>
   </total>
  </dos>
 </calculation>
 <structure name="finalpos" >
  <crystal>
   <varray name="basis" >
    <v>      15.00000000       0.00000000       0.00000000 </v>
    <v>       0.00000000      15.00000000       0.00000000 </v>
    <v>       0.00000000       0.00000000      15.00000000 </v>
   </varray>
   <i name="volume">   3375.00000000 </i>
   <varray name="rec_basis" >
    <v>       0.06666667       0.00000000       0.00000000 </v>
    <v>       0.00000000       0.06666667       0.00000000 </v>
    <v>       0.00000000       0.00000000       0.06666667 </v>
   </varray>
  </crystal>
  <varray name="positions" >
   <v>       0.50000000       0.50000000       0.49982292 </v>
   <v>       0.50000000       0.50000000       0.57637708 </v>
  </varray>
 </structure>
</modeling>
