CO molecule in vacuum                   
            1
    15.000000    0.000000    0.000000
     0.000000   15.000000    0.000000
     0.000000    0.000000   15.000000
   C    O 
     1     1
Direct configuration=     1
   0.50000000  0.50000000  0.50000000
   0.50000000  0.50000000  0.57620000
Direct configuration=     2
   0.50000000  0.50000000  0.49807329
   0.50000000  0.50000000  0.57812671
Direct configuration=     3
   0.50000000  0.50000000  0.49982292
   0.50000000  0.50000000  0.57637708
