       N       E                     dE             d eps       ncg     rms          rms(c)
DAV:   1     0.166453526918E+04    0.16645E+04   -0.71909E+04  2220   0.148E+03
DAV:   2     0.182833572829E+03   -0.14817E+04   -0.13759E+04  2306   0.376E+02
DAV:   3    -0.412909920852E+02   -0.22412E+03   -0.20807E+03  3161   0.181E+02
DAV:   4    -0.607018985493E+02   -0.19411E+02   -0.18640E+02  3456   0.587E+01
DAV:   5    -0.612198851843E+02   -0.51799E+00   -0.50688E+00  3336   0.971E+00    0.289E+01
DAV:   6    -0.610144105787E+02    0.20547E+00   -0.11443E+02  3104   0.116E+02    0.185E+01
DAV:   7    -0.535419934511E+02    0.74724E+01   -0.46662E+01  2832   0.143E+02    0.113E+01
DAV:   8    -0.552576025063E+02   -0.17156E+01   -0.32350E+01  3464   0.820E+01    0.137E+01
DAV:   9    -0.533941639474E+02    0.18634E+01   -0.17422E+01  3608   0.512E+01    0.558E+00
DAV:  10    -0.533669123020E+02    0.27252E-01   -0.73156E+00  3416   0.379E+01    0.357E+00
DAV:  11    -0.530884859806E+02    0.27843E+00   -0.11414E+00  3128   0.245E+01    0.103E+00
DAV:  12    -0.530908913374E+02   -0.24054E-02   -0.48039E-01  3280   0.836E+00    0.677E-01
DAV:  13    -0.530922655993E+02   -0.13743E-02   -0.11031E-01  2921   0.502E+00    0.359E-01
DAV:  14    -0.530906172624E+02    0.16483E-02   -0.25453E-02  2626   0.182E+00    0.196E-01
DAV:  15    -0.530896253306E+02    0.99193E-03   -0.65690E-03  3146   0.974E-01    0.119E-01
DAV:  16    -0.530892698463E+02    0.35548E-03   -0.25412E-03  2948   0.905E-01    0.743E-02
DAV:  17    -0.530891896357E+02    0.80211E-04   -0.10406E-03  2886   0.554E-01    0.398E-02
DAV:  18    -0.530892528488E+02   -0.63213E-04   -0.28889E-04  3346   0.225E-01    0.211E-02
DAV:  19    -0.530893709731E+02   -0.11812E-03   -0.90162E-05  3180   0.113E-01    0.145E-02
DAV:  20    -0.530895067727E+02   -0.13580E-03   -0.50087E-05  2843   0.982E-02    0.104E-02
DAV:  21    -0.530896047423E+02   -0.97970E-04   -0.20175E-05  2486   0.659E-02    0.646E-03
DAV:  22    -0.530896808330E+02   -0.76091E-04   -0.87451E-06  2293   0.303E-02    0.641E-03
DAV:  23    -0.530897617863E+02   -0.80953E-04   -0.12962E-05  2597   0.402E-02    0.383E-03
DAV:  24    -0.530897954377E+02   -0.33651E-04   -0.40760E-06  1965   0.349E-02    0.262E-03
DAV:  25    -0.530898214918E+02   -0.26054E-04   -0.17879E-06  1639   0.184E-02    0.102E-03
DAV:  26    -0.530898395428E+02   -0.18051E-04   -0.11528E-06  1544   0.903E-03    0.125E-03
DAV:  27    -0.530898470643E+02   -0.75215E-05   -0.58059E-07  1511   0.869E-03    0.802E-04
DAV:  28    -0.530898554146E+02   -0.83503E-05   -0.44688E-07  1490   0.661E-03    0.767E-04
DAV:  29    -0.530898612239E+02   -0.58093E-05   -0.28464E-07  1515   0.524E-03    0.441E-04
DAV:  30    -0.530898639486E+02   -0.27247E-05   -0.12864E-07  1460   0.326E-03    0.289E-04
DAV:  31    -0.530898657632E+02   -0.18146E-05   -0.66284E-08  1428   0.253E-03    0.248E-04
DAV:  32    -0.530898666710E+02   -0.90781E-06   -0.35375E-08  1428   0.190E-03
   1 F= -.53089867E+02 E0= -.53061724E+02  d E =-.530899E+02
       N       E                     dE             d eps       ncg     rms          rms(c)
DAV:   1    -0.502279574297E+02    0.28619E+01   -0.49200E+02  2220   0.493E+01    0.609E+00
DAV:   2    -0.543570440273E+02   -0.41291E+01   -0.50801E+01  3556   0.563E+01    0.122E+01
DAV:   3    -0.505991700528E+02    0.37579E+01   -0.18766E+01  3425   0.434E+01    0.375E+00
DAV:   4    -0.504537324270E+02    0.14544E+00   -0.20367E+00  3616   0.222E+01    0.267E+00
DAV:   5    -0.504267939079E+02    0.26939E-01   -0.86733E-01  3201   0.153E+01    0.155E+00
DAV:   6    -0.504119937221E+02    0.14800E-01   -0.20776E-01  3000   0.124E+01    0.988E-01
DAV:   7    -0.504089303320E+02    0.30634E-02   -0.78245E-02  3328   0.572E+00    0.307E-01
DAV:   8    -0.504130917320E+02   -0.41614E-02   -0.27526E-02  3200   0.195E+00    0.242E-01
DAV:   9    -0.504143367396E+02   -0.12450E-02   -0.12469E-02  2968   0.206E+00    0.164E-01
DAV:  10    -0.504159204866E+02   -0.15837E-02   -0.55441E-03  3120   0.125E+00    0.123E-01
DAV:  11    -0.504166508086E+02   -0.73032E-03   -0.41302E-03  3288   0.100E+00    0.818E-02
DAV:  12    -0.504175700268E+02   -0.91922E-03   -0.10211E-03  3200   0.304E-01    0.311E-02
DAV:  13    -0.504184337028E+02   -0.86368E-03   -0.41150E-04  3232   0.202E-01    0.301E-02
DAV:  14    -0.504190744405E+02   -0.64074E-03   -0.21725E-04  3032   0.190E-01    0.196E-02
DAV:  15    -0.504195207443E+02   -0.44630E-03   -0.15874E-04  2904   0.101E-01    0.115E-02
DAV:  16    -0.504197200264E+02   -0.19928E-03   -0.50683E-05  3072   0.661E-02    0.817E-03
DAV:  17    -0.504198742287E+02   -0.15420E-03   -0.26525E-05  2824   0.455E-02    0.553E-03
DAV:  18    -0.504199413498E+02   -0.67121E-04   -0.63534E-06  2704   0.381E-02    0.426E-03
DAV:  19    -0.504200283899E+02   -0.87040E-04   -0.10581E-05  2843   0.272E-02    0.259E-03
DAV:  20    -0.504200520268E+02   -0.23637E-04   -0.10921E-06  1688   0.988E-03    0.204E-03
DAV:  21    -0.504200790067E+02   -0.26980E-04   -0.19896E-06  1723   0.152E-02    0.182E-03
DAV:  22    -0.504200875122E+02   -0.85055E-05   -0.10419E-06  1616   0.122E-02    0.114E-03
DAV:  23    -0.504200910916E+02   -0.35794E-05   -0.53215E-07  1466   0.706E-03    0.620E-04
DAV:  24    -0.504200962273E+02   -0.51357E-05   -0.38886E-07  1393   0.600E-03    0.731E-04
DAV:  25    -0.504200980562E+02   -0.18289E-05   -0.19279E-07  1408   0.452E-03    0.336E-04
DAV:  26    -0.504200994583E+02   -0.14021E-05   -0.12115E-07  1376   0.290E-03    0.259E-04
DAV:  27    -0.504201008394E+02   -0.13811E-05   -0.62235E-08  1410   0.227E-03    0.200E-04
DAV:  28    -0.504201019357E+02   -0.10963E-05   -0.40799E-08  1442   0.179E-03    0.177E-04
DAV:  29    -0.504201023786E+02   -0.44287E-06   -0.21138E-08  1352   0.139E-03
   2 F= -.50420102E+02 E0= -.50394604E+02  d E =0.266976E+01
       N       E                     dE             d eps       ncg     rms          rms(c)
DAV:   1    -0.519443163736E+02   -0.15242E+01   -0.17554E+02  2220   0.407E+01    0.411E+00
DAV:   2    -0.534195998733E+02   -0.14753E+01   -0.15939E+01  3536   0.221E+01    0.530E+00
DAV:   3    -0.530572925334E+02    0.36231E+00   -0.11261E+01  3584   0.310E+01    0.311E+00
DAV:   4    -0.528324617174E+02    0.22483E+00   -0.29192E+00  3144   0.217E+01    0.170E+00
DAV:   5    -0.527856341416E+02    0.46828E-01   -0.27302E-01  3536   0.931E+00    0.122E+00
DAV:   6    -0.527655457045E+02    0.20088E-01   -0.10918E-01  3032   0.691E+00    0.895E-01
DAV:   7    -0.527536209846E+02    0.11925E-01   -0.65770E-02  2984   0.570E+00    0.384E-01
DAV:   8    -0.527504915980E+02    0.31294E-02   -0.23095E-02  3292   0.222E+00    0.168E-01
DAV:   9    -0.527500271547E+02    0.46444E-03   -0.48456E-03  3281   0.790E-01    0.123E-01
DAV:  10    -0.527497180474E+02    0.30911E-03   -0.17246E-03  2904   0.763E-01    0.853E-02
DAV:  11    -0.527494950817E+02    0.22297E-03   -0.86630E-04  2881   0.563E-01    0.422E-02
DAV:  12    -0.527495556906E+02   -0.60609E-04   -0.34067E-04  3059   0.207E-01    0.229E-02
DAV:  13    -0.527497275918E+02   -0.17190E-03   -0.14153E-04  2754   0.165E-01    0.208E-02
DAV:  14    -0.527499038566E+02   -0.17626E-03   -0.53435E-05  2921   0.137E-01    0.139E-02
DAV:  15    -0.527501963815E+02   -0.29252E-03   -0.58468E-05  3009   0.799E-02    0.789E-03
DAV:  16    -0.527504899182E+02   -0.29354E-03   -0.38916E-05  2855   0.396E-02    0.484E-03
DAV:  17    -0.527505938759E+02   -0.10396E-03   -0.63977E-06  2336   0.319E-02    0.427E-03
DAV:  18    -0.527506688971E+02   -0.75021E-04   -0.28982E-06  1779   0.273E-02    0.258E-03
DAV:  19    -0.527507442294E+02   -0.75332E-04   -0.39021E-06  2162   0.133E-02    0.124E-03
DAV:  20    -0.527507792537E+02   -0.35024E-04   -0.11640E-06  1649   0.625E-03    0.103E-03
DAV:  21    -0.527508030970E+02   -0.23843E-04   -0.79687E-07  1538   0.931E-03    0.987E-04
DAV:  22    -0.527508109212E+02   -0.78241E-05   -0.36768E-07  1498   0.718E-03    0.595E-04
DAV:  23    -0.527508198421E+02   -0.89209E-05   -0.42506E-07  1463   0.496E-03    0.435E-04
DAV:  24    -0.527508219963E+02   -0.21542E-05   -0.15710E-07  1474   0.370E-03    0.267E-04
DAV:  25    -0.527508241816E+02   -0.21853E-05   -0.79442E-08  1357   0.229E-03    0.217E-04
DAV:  26    -0.527508255676E+02   -0.13860E-05   -0.38882E-08  1381   0.179E-03    0.132E-04
DAV:  27    -0.527508263890E+02   -0.82137E-06   -0.22847E-08  1332   0.117E-03
   3 F= -.52750826E+02 E0= -.52723739E+02  d E =0.339040E+00
       N       E                     dE             d eps       ncg     rms          rms(c)
DAV:   1    -0.531120919363E+02   -0.36127E+00   -0.23113E+01  2220   0.134E+01    0.169E+00
DAV:   2    -0.532643158037E+02   -0.15222E+00   -0.18412E+00  3459   0.739E+00    0.170E+00
DAV:   3    -0.532462243470E+02    0.18091E-01   -0.13925E+00  3413   0.129E+01    0.136E+00
DAV:   4    -0.532003359999E+02    0.45888E-01   -0.55106E-01  3053   0.105E+01    0.689E-01
DAV:   5    -0.531888772575E+02    0.11459E-01   -0.48903E-02  3172   0.417E+00    0.353E-01
DAV:   6    -0.531864821856E+02    0.23951E-02   -0.17657E-02  3041   0.314E+00    0.237E-01
DAV:   7    -0.531858473462E+02    0.63484E-03   -0.70268E-03  3049   0.177E+00    0.964E-02
DAV:   8    -0.531857386563E+02    0.10869E-03   -0.19925E-03  3243   0.530E-01    0.544E-02
DAV:   9    -0.531857636668E+02   -0.25011E-04   -0.57015E-04  2923   0.333E-01    0.411E-02
DAV:  10    -0.531858107220E+02   -0.47055E-04   -0.20367E-04  2915   0.292E-01    0.245E-02
DAV:  11    -0.531859143171E+02   -0.10360E-03   -0.10010E-04  3207   0.149E-01    0.141E-02
DAV:  12    -0.531860180669E+02   -0.10375E-03   -0.30033E-05  3227   0.674E-02    0.957E-03
DAV:  13    -0.531861582343E+02   -0.14017E-03   -0.19006E-05  2660   0.644E-02    0.769E-03
DAV:  14    -0.531862550396E+02   -0.96805E-04   -0.10192E-05  2505   0.524E-02    0.461E-03
DAV:  15    -0.531863819839E+02   -0.12694E-03   -0.10333E-05  2280   0.221E-02    0.273E-03
DAV:  16    -0.531864533824E+02   -0.71398E-04   -0.46209E-06  1984   0.224E-02    0.242E-03
DAV:  17    -0.531864856216E+02   -0.32239E-04   -0.16063E-06  1725   0.181E-02    0.137E-03
DAV:  18    -0.531865210528E+02   -0.35431E-04   -0.16461E-06  1652   0.101E-02    0.109E-03
DAV:  19    -0.531865376970E+02   -0.16644E-04   -0.65611E-07  1601   0.726E-03    0.704E-04
DAV:  20    -0.531865471175E+02   -0.94206E-05   -0.45772E-07  1501   0.456E-03    0.405E-04
DAV:  21    -0.531865520760E+02   -0.49584E-05   -0.21458E-07  1460   0.449E-03    0.518E-04
DAV:  22    -0.531865543609E+02   -0.22849E-05   -0.11828E-07  1429   0.353E-03    0.259E-04
DAV:  23    -0.531865564664E+02   -0.21055E-05   -0.74153E-08  1388   0.202E-03    0.212E-04
DAV:  24    -0.531865572192E+02   -0.75283E-06   -0.35802E-08  1427   0.187E-03
   4 F= -.53186557E+02 E0= -.53158871E+02  d E =-.966905E-01
       N       E                     dE             d eps       ncg     rms          rms(c)
DAV:   1    -0.532079836544E+02   -0.21427E-01   -0.10834E+00  2220   0.258E+00    0.389E-01
DAV:   2    -0.532128899734E+02   -0.49063E-02   -0.67546E-02  3347   0.145E+00    0.326E-01
DAV:   3    -0.532135448656E+02   -0.65489E-03   -0.68257E-02  3163   0.308E+00    0.325E-01
DAV:   4    -0.532104590790E+02    0.30858E-02   -0.32562E-02  3064   0.268E+00    0.144E-01
DAV:   5    -0.532099180956E+02    0.54098E-03   -0.21273E-03  3035   0.936E-01    0.564E-02
DAV:   6    -0.532098722567E+02    0.45839E-04   -0.61220E-04  3252   0.497E-01    0.432E-02
DAV:   7    -0.532098640187E+02    0.82380E-05   -0.19865E-04  2920   0.286E-01    0.206E-02
DAV:   8    -0.532098723536E+02   -0.83349E-05   -0.68258E-05  3024   0.100E-01    0.991E-03
DAV:   9    -0.532098906318E+02   -0.18278E-04   -0.20293E-05  2763   0.637E-02    0.713E-03
DAV:  10    -0.532099016710E+02   -0.11039E-04   -0.65305E-06  2138   0.501E-02    0.450E-03
DAV:  11    -0.532099195919E+02   -0.17921E-04   -0.32951E-06  1622   0.275E-02    0.260E-03
DAV:  12    -0.532099362223E+02   -0.16630E-04   -0.22052E-06  1725   0.140E-02    0.172E-03
DAV:  13    -0.532099498777E+02   -0.13655E-04   -0.12299E-06  1589   0.138E-02    0.160E-03
DAV:  14    -0.532099610805E+02   -0.11203E-04   -0.10079E-06  1591   0.125E-02    0.956E-04
DAV:  15    -0.532099735512E+02   -0.12471E-04   -0.11626E-06  1576   0.664E-03    0.755E-04
DAV:  16    -0.532099784408E+02   -0.48896E-05   -0.44557E-07  1536   0.648E-03    0.625E-04
DAV:  17    -0.532099827001E+02   -0.42593E-05   -0.27010E-07  1447   0.491E-03    0.359E-04
DAV:  18    -0.532099852994E+02   -0.25993E-05   -0.16526E-07  1457   0.303E-03    0.305E-04
DAV:  19    -0.532099876956E+02   -0.23962E-05   -0.11997E-07  1453   0.303E-03    0.283E-04
DAV:  20    -0.532099882698E+02   -0.57413E-06   -0.55898E-08  1474   0.202E-03
   5 F= -.53209988E+02 E0= -.53182177E+02  d E =-.120122E+00
       N       E                     dE             d eps       ncg     rms          rms(c)
DAV:   1    -0.532107382624E+02   -0.75057E-03   -0.55641E-02  2255   0.562E-01    0.906E-02
DAV:   2    -0.532109514500E+02   -0.21319E-03   -0.31334E-03  3331   0.316E-01    0.708E-02
DAV:   3    -0.532110271908E+02   -0.75741E-04   -0.37663E-03  3101   0.734E-01    0.784E-02
DAV:   4    -0.532108335166E+02    0.19367E-03   -0.18578E-03  3047   0.633E-01    0.308E-02
DAV:   5    -0.532108083970E+02    0.25120E-04   -0.95593E-05  3039   0.206E-01    0.122E-02
DAV:   6    -0.532108057150E+02    0.26820E-05   -0.27562E-05  3178   0.100E-01    0.903E-03
DAV:   7    -0.532108054366E+02    0.27844E-06   -0.80387E-06  2064   0.580E-02
   6 F= -.53210805E+02 E0= -.53182963E+02  d E =-.120939E+00
       N       E                     dE             d eps       ncg     rms          rms(c)
DAV:   1    -0.532745783424E+02   -0.63773E-01   -0.52116E+01  2220   0.198E+01    0.741E-01
DAV:   2    -0.533672049091E+02   -0.92627E-01   -0.98035E-01  3393   0.745E+00    0.901E-01
DAV:   3    -0.533590797422E+02    0.81252E-02   -0.41229E-02  2848   0.311E+00    0.417E-01
DAV:   4    -0.533587477100E+02    0.33203E-03   -0.10780E-02  3234   0.180E+00    0.312E-01
DAV:   5    -0.533586006123E+02    0.14710E-03   -0.11364E-02  3069   0.228E+00    0.206E-01
DAV:   6    -0.533593615040E+02   -0.76089E-03   -0.23785E-02  3243   0.234E+00    0.215E-01
DAV:   7    -0.533581875281E+02    0.11740E-02   -0.16933E-02  3720   0.171E+00    0.597E-02
DAV:   8    -0.533580675711E+02    0.11996E-03   -0.15593E-03  3345   0.333E-01    0.362E-02
DAV:   9    -0.533580566553E+02    0.10916E-04   -0.20367E-04  2898   0.149E-01    0.171E-02
DAV:  10    -0.533580545012E+02    0.21541E-05   -0.39349E-05  3011   0.963E-02    0.114E-02
DAV:  11    -0.533580541193E+02    0.38190E-06   -0.12541E-05  2330   0.728E-02    0.487E-03
DAV:  12    -0.533580555199E+02   -0.14007E-05   -0.55433E-06  2252   0.288E-02    0.264E-03
DAV:  13    -0.533580557713E+02   -0.25137E-06   -0.10002E-06  1337   0.154E-02
   7 F= -.53358056E+02 E0= -.53330013E+02  d E =-.147250E+00
       N       E                     dE             d eps       ncg     rms          rms(c)
DAV:   1    -0.532575939820E+02    0.10046E+00   -0.10431E+02  2220   0.279E+01    0.975E-01
DAV:   2    -0.534603841451E+02   -0.20279E+00   -0.21382E+00  3400   0.108E+01    0.125E+00
DAV:   3    -0.534434102756E+02    0.16974E-01   -0.78883E-02  2871   0.463E+00    0.574E-01
DAV:   4    -0.534426440898E+02    0.76619E-03   -0.22255E-02  3347   0.239E+00    0.439E-01
DAV:   5    -0.534449964165E+02   -0.23523E-02   -0.62990E-02  3198   0.378E+00    0.411E-01
DAV:   6    -0.534425709732E+02    0.24254E-02   -0.76818E-02  3893   0.333E+00    0.259E-01
DAV:   7    -0.534410031942E+02    0.15678E-02   -0.10480E-02  3489   0.175E+00    0.588E-02
DAV:   8    -0.534410594454E+02   -0.56251E-04   -0.18942E-03  3121   0.480E-01    0.600E-02
DAV:   9    -0.534410215137E+02    0.37932E-04   -0.41747E-04  2976   0.233E-01    0.296E-02
DAV:  10    -0.534410063979E+02    0.15116E-04   -0.10455E-04  3265   0.122E-01    0.115E-02
DAV:  11    -0.534410084121E+02   -0.20142E-05   -0.23191E-05  3034   0.828E-02    0.747E-03
DAV:  12    -0.534410092573E+02   -0.84518E-06   -0.85368E-06  2065   0.598E-02
   8 F= -.53441009E+02 E0= -.53412891E+02  d E =-.230204E+00
       N       E                     dE             d eps       ncg     rms          rms(c)
DAV:   1    -0.534401687860E+02    0.83963E-03   -0.15137E+00  2220   0.331E+00    0.979E-02
DAV:   2    -0.534422847762E+02   -0.21160E-02   -0.22060E-02  3385   0.106E+00    0.967E-02
DAV:   3    -0.534422160308E+02    0.68745E-04   -0.84304E-04  2796   0.500E-01    0.534E-02
DAV:   4    -0.534422172224E+02   -0.11916E-05   -0.26442E-04  3081   0.248E-01    0.401E-02
DAV:   5    -0.534422831625E+02   -0.65940E-04   -0.10331E-03  3365   0.465E-01    0.501E-02
DAV:   6    -0.534422175101E+02    0.65652E-04   -0.89443E-04  3480   0.392E-01    0.154E-02
DAV:   7    -0.534422127840E+02    0.47261E-05   -0.82164E-05  3802   0.102E-01    0.532E-03
DAV:   8    -0.534422126565E+02    0.12750E-06   -0.72744E-06  2337   0.285E-02
   9 F= -.53442213E+02 E0= -.53414105E+02  d E =-.231407E+00
       N       E                     dE             d eps       ncg     rms          rms(c)
DAV:   1    -0.534617144956E+02   -0.19502E-01   -0.25363E+01  2220   0.151E+01    0.694E-01
DAV:   2    -0.535181422639E+02   -0.56428E-01   -0.61814E-01  3386   0.549E+00    0.733E-01
DAV:   3    -0.535116286692E+02    0.65136E-02   -0.67304E-02  2886   0.273E+00    0.401E-01
DAV:   4    -0.535130364861E+02   -0.14078E-02   -0.67661E-02  2880   0.363E+00    0.389E-01
DAV:   5    -0.535101268551E+02    0.29096E-02   -0.33766E-02  3546   0.245E+00    0.177E-01
DAV:   6    -0.535103665337E+02   -0.23968E-03   -0.64332E-03  3474   0.140E+00    0.133E-01
DAV:   7    -0.535101813360E+02    0.18520E-03   -0.20794E-03  3002   0.968E-01    0.347E-02
DAV:   8    -0.535101914547E+02   -0.10119E-04   -0.29842E-04  3320   0.266E-01    0.255E-02
DAV:   9    -0.535101864602E+02    0.49944E-05   -0.87025E-05  2976   0.183E-01    0.163E-02
DAV:  10    -0.535101839690E+02    0.24913E-05   -0.22811E-05  3036   0.100E-01    0.805E-03
DAV:  11    -0.535101846049E+02   -0.63595E-06   -0.10487E-05  2450   0.491E-02    0.407E-03
DAV:  12    -0.535101850623E+02   -0.45737E-06   -0.29635E-06  1804   0.353E-02
  10 F= -.53510185E+02 E0= -.53482035E+02  d E =-.679724E-01
       N       E                     dE             d eps       ncg     rms          rms(c)
DAV:   1    -0.530962898260E+02    0.41389E+00   -0.23171E+02  2220   0.475E+01    0.214E+00
DAV:   2    -0.537281099836E+02   -0.63182E+00   -0.67656E+00  3404   0.160E+01    0.212E+00
DAV:   3    -0.536856987451E+02    0.42411E-01   -0.77749E-01  3275   0.854E+00    0.137E+00
DAV:   4    -0.536781899545E+02    0.75088E-02   -0.67920E-01  2971   0.105E+01    0.112E+00
DAV:   5    -0.536588680182E+02    0.19322E-01   -0.19194E-01  3428   0.599E+00    0.585E-01
DAV:   6    -0.536604658307E+02   -0.15978E-02   -0.45267E-02  3477   0.393E+00    0.420E-01
DAV:   7    -0.536580731273E+02    0.23927E-02   -0.19417E-02  3035   0.316E+00    0.118E-01
DAV:   8    -0.536582151384E+02   -0.14201E-03   -0.33259E-03  3304   0.844E-01    0.698E-02
DAV:   9    -0.536582070501E+02    0.80883E-05   -0.83298E-04  2937   0.489E-01    0.483E-02
DAV:  10    -0.536581837466E+02    0.23303E-04   -0.23782E-04  3004   0.322E-01    0.252E-02
DAV:  11    -0.536581850962E+02   -0.13496E-05   -0.10136E-04  3376   0.142E-01    0.921E-03
DAV:  12    -0.536581859266E+02   -0.83036E-06   -0.22946E-05  2427   0.873E-02    0.601E-03
DAV:  13    -0.536581868873E+02   -0.96078E-06   -0.64289E-06  1986   0.399E-02
  11 F= -.53658187E+02 E0= -.53630203E+02  d E =-.215974E+00
       N       E                     dE             d eps       ncg     rms          rms(c)
DAV:   1    -0.509638074685E+02    0.26944E+01   -0.99110E+02  2422   0.109E+02    0.508E+00
DAV:   2    -0.538170125596E+02   -0.28532E+01   -0.30211E+01  3396   0.340E+01    0.437E+00
DAV:   3    -0.536900458351E+02    0.12697E+00   -0.28277E+00  2906   0.169E+01    0.268E+00
DAV:   4    -0.536786637128E+02    0.11382E-01   -0.25407E+00  3256   0.173E+01    0.246E+00
DAV:   5    -0.536000933060E+02    0.78570E-01   -0.10314E+00  3137   0.134E+01    0.153E+00
DAV:   6    -0.535941299887E+02    0.59633E-02   -0.18347E-01  3640   0.674E+00    0.870E-01
DAV:   7    -0.535873464140E+02    0.67836E-02   -0.77159E-02  3076   0.601E+00    0.417E-01
DAV:   8    -0.535866568016E+02    0.68961E-03   -0.18030E-02  3042   0.285E+00    0.147E-01
DAV:   9    -0.535869634245E+02   -0.30662E-03   -0.54197E-03  3184   0.835E-01    0.897E-02
DAV:  10    -0.535869369197E+02    0.26505E-04   -0.13689E-03  2963   0.612E-01    0.635E-02
DAV:  11    -0.535869212858E+02    0.15634E-04   -0.48895E-04  3120   0.447E-01    0.267E-02
DAV:  12    -0.535869265172E+02   -0.52314E-05   -0.12202E-04  3161   0.164E-01    0.112E-02
DAV:  13    -0.535869299221E+02   -0.34049E-05   -0.45325E-05  3024   0.880E-02    0.928E-03
DAV:  14    -0.535869337000E+02   -0.37779E-05   -0.11552E-05  2161   0.606E-02    0.589E-03
DAV:  15    -0.535869399694E+02   -0.62694E-05   -0.59906E-06  2089   0.353E-02    0.257E-03
DAV:  16    -0.535869442843E+02   -0.43149E-05   -0.16395E-06  1568   0.144E-02    0.145E-03
DAV:  17    -0.535869475722E+02   -0.32879E-05   -0.59472E-07  1529   0.109E-02    0.988E-04
DAV:  18    -0.535869511057E+02   -0.35335E-05   -0.36820E-07  1537   0.727E-03    0.548E-04
DAV:  19    -0.535869572290E+02   -0.61234E-05   -0.50086E-07  1553   0.481E-03    0.684E-04
DAV:  20    -0.535869598351E+02   -0.26060E-05   -0.27287E-07  1584   0.496E-03    0.367E-04
DAV:  21    -0.535869610387E+02   -0.12036E-05   -0.14780E-07  1489   0.299E-03    0.325E-04
DAV:  22    -0.535869618752E+02   -0.83650E-06   -0.10903E-07  1480   0.268E-03
  12 F= -.53586962E+02 E0= -.53561467E+02  d E =-.144749E+00
       N       E                     dE             d eps       ncg     rms          rms(c)
DAV:   1    -0.525289805018E+02    0.10580E+01   -0.45874E+02  2257   0.681E+01    0.325E+00
DAV:   2    -0.539041223745E+02   -0.13751E+01   -0.14694E+01  3424   0.254E+01    0.314E+00
DAV:   3    -0.539284249101E+02   -0.24303E-01   -0.55955E+00  3521   0.263E+01    0.273E+00
DAV:   4    -0.537082091988E+02    0.22022E+00   -0.23027E+00  3216   0.185E+01    0.128E+00
DAV:   5    -0.537009736718E+02    0.72355E-02   -0.14381E-01  3283   0.611E+00    0.792E-01
DAV:   6    -0.537008157738E+02    0.15790E-03   -0.66323E-02  3088   0.485E+00    0.471E-01
DAV:   7    -0.537002577841E+02    0.55799E-03   -0.25880E-02  2971   0.366E+00    0.204E-01
DAV:   8    -0.536999555631E+02    0.30222E-03   -0.74355E-03  3034   0.183E+00    0.886E-02
DAV:   9    -0.537000627663E+02   -0.10720E-03   -0.20818E-03  2850   0.579E-01    0.540E-02
DAV:  10    -0.537000797093E+02   -0.16943E-04   -0.43969E-04  2875   0.345E-01    0.446E-02
DAV:  11    -0.537000732318E+02    0.64775E-05   -0.15657E-04  3013   0.244E-01    0.203E-02
DAV:  12    -0.537000706236E+02    0.26082E-05   -0.65098E-05  3137   0.141E-01    0.889E-03
DAV:  13    -0.537000718932E+02   -0.12696E-05   -0.13693E-05  2206   0.664E-02    0.470E-03
DAV:  14    -0.537000735565E+02   -0.16633E-05   -0.60930E-06  1931   0.258E-02    0.281E-03
DAV:  15    -0.537000755214E+02   -0.19650E-05   -0.11153E-06  1447   0.110E-02    0.152E-03
DAV:  16    -0.537000765257E+02   -0.10043E-05   -0.60735E-07  1473   0.123E-02    0.104E-03
DAV:  17    -0.537000770432E+02   -0.51750E-06   -0.20813E-07  1332   0.704E-03
  13 F= -.53700077E+02 E0= -.53672523E+02  d E =-.257864E+00
       N       E                     dE             d eps       ncg     rms          rms(c)
DAV:   1    -0.536104843381E+02    0.89592E-01   -0.23570E+01  2220   0.143E+01    0.112E+00
DAV:   2    -0.537212554783E+02   -0.11077E+00   -0.14300E+00  3455   0.730E+00    0.170E+00
DAV:   3    -0.536693506402E+02    0.51905E-01   -0.10949E+00  3158   0.113E+01    0.106E+00
DAV:   4    -0.536497890110E+02    0.19562E-01   -0.18852E-01  2946   0.690E+00    0.524E-01
DAV:   5    -0.536469528011E+02    0.28362E-02   -0.45451E-02  3281   0.174E+00    0.249E-01
DAV:   6    -0.536466982734E+02    0.25453E-03   -0.80294E-03  2993   0.198E+00    0.188E-01
DAV:   7    -0.536464578376E+02    0.24044E-03   -0.28982E-03  3081   0.118E+00    0.554E-02
DAV:   8    -0.536466667480E+02   -0.20891E-03   -0.95064E-04  3290   0.377E-01    0.327E-02
DAV:   9    -0.536468160169E+02   -0.14927E-03   -0.24449E-04  2928   0.301E-01    0.276E-02
DAV:  10    -0.536469170300E+02   -0.10101E-03   -0.73728E-05  3011   0.161E-01    0.104E-02
DAV:  11    -0.536470236779E+02   -0.10665E-03   -0.33541E-05  3184   0.734E-02    0.762E-03
DAV:  12    -0.536470829568E+02   -0.59279E-04   -0.10443E-05  2514   0.551E-02    0.521E-03
DAV:  13    -0.536471587072E+02   -0.75750E-04   -0.11204E-05  2580   0.301E-02    0.353E-03
DAV:  14    -0.536472230944E+02   -0.64387E-04   -0.83753E-06  2307   0.141E-02    0.289E-03
DAV:  15    -0.536472647453E+02   -0.41651E-04   -0.66335E-06  2129   0.155E-02    0.152E-03
DAV:  16    -0.536472795322E+02   -0.14787E-04   -0.16364E-06  1792   0.132E-02    0.125E-03
DAV:  17    -0.536472903296E+02   -0.10797E-04   -0.98950E-07  1649   0.901E-03    0.739E-04
DAV:  18    -0.536472960004E+02   -0.56708E-05   -0.51755E-07  1560   0.531E-03    0.550E-04
DAV:  19    -0.536472999897E+02   -0.39894E-05   -0.26264E-07  1442   0.413E-03    0.415E-04
DAV:  20    -0.536473026452E+02   -0.26555E-05   -0.17148E-07  1482   0.314E-03    0.266E-04
DAV:  21    -0.536473035807E+02   -0.93546E-06   -0.80667E-08  1400   0.285E-03
  14 F= -.53647304E+02 E0= -.53620252E+02  d E =0.527735E-01
       N       E                     dE             d eps       ncg     rms          rms(c)
DAV:   1    -0.536858455665E+02   -0.38543E-01   -0.12632E+01  2220   0.106E+01    0.779E-01
DAV:   2    -0.537435826441E+02   -0.57737E-01   -0.70754E-01  3570   0.561E+00    0.115E+00
DAV:   3    -0.537189335988E+02    0.24649E-01   -0.48688E-01  3240   0.735E+00    0.687E-01
DAV:   4    -0.537111842400E+02    0.77494E-02   -0.86756E-02  3051   0.447E+00    0.388E-01
DAV:   5    -0.537092633132E+02    0.19209E-02   -0.17233E-02  3379   0.168E+00    0.177E-01
DAV:   6    -0.537089556595E+02    0.30765E-03   -0.49862E-03  2939   0.145E+00    0.115E-01
DAV:   7    -0.537089065255E+02    0.49134E-04   -0.16490E-03  2993   0.821E-01    0.619E-02
DAV:   8    -0.537088813972E+02    0.25128E-04   -0.50410E-04  3106   0.398E-01    0.294E-02
DAV:   9    -0.537089248472E+02   -0.43450E-04   -0.17802E-04  3156   0.161E-01    0.177E-02
DAV:  10    -0.537089604726E+02   -0.35625E-04   -0.42904E-05  2998   0.115E-01    0.117E-02
DAV:  11    -0.537089899291E+02   -0.29457E-04   -0.15634E-05  2499   0.753E-02    0.613E-03
DAV:  12    -0.537090262769E+02   -0.36348E-04   -0.64537E-06  2306   0.320E-02    0.399E-03
DAV:  13    -0.537090677012E+02   -0.41424E-04   -0.43662E-06  1971   0.218E-02    0.307E-03
DAV:  14    -0.537090924061E+02   -0.24705E-04   -0.19942E-06  1712   0.219E-02    0.217E-03
DAV:  15    -0.537091231983E+02   -0.30792E-04   -0.21796E-06  1701   0.122E-02    0.163E-03
DAV:  16    -0.537091513496E+02   -0.28151E-04   -0.27874E-06  1809   0.109E-02    0.947E-04
DAV:  17    -0.537091583899E+02   -0.70404E-05   -0.63574E-07  1592   0.840E-03    0.755E-04
DAV:  18    -0.537091663038E+02   -0.79139E-05   -0.45195E-07  1553   0.618E-03    0.609E-04
DAV:  19    -0.537091696765E+02   -0.33727E-05   -0.22384E-07  1504   0.493E-03    0.396E-04
DAV:  20    -0.537091722440E+02   -0.25675E-05   -0.13158E-07  1466   0.323E-03    0.321E-04
DAV:  21    -0.537091740466E+02   -0.18026E-05   -0.87147E-08  1482   0.271E-03    0.218E-04
DAV:  22    -0.537091755590E+02   -0.15123E-05   -0.58613E-08  1421   0.170E-03    0.171E-04
DAV:  23    -0.537091759102E+02   -0.35125E-06   -0.25791E-08  1370   0.147E-03
  15 F= -.53709176E+02 E0= -.53681750E+02  d E =-.909887E-02
       N       E                     dE             d eps       ncg     rms          rms(c)
DAV:   1    -0.537116459625E+02   -0.24704E-02   -0.36342E+00  2220   0.553E+00    0.233E-01
DAV:   2    -0.537195622908E+02   -0.79163E-02   -0.85382E-02  3295   0.184E+00    0.257E-01
DAV:   3    -0.537193033483E+02    0.25894E-03   -0.20021E-02  2957   0.140E+00    0.194E-01
DAV:   4    -0.537188113455E+02    0.49200E-03   -0.12125E-02  2686   0.148E+00    0.132E-01
DAV:   5    -0.537186236840E+02    0.18766E-03   -0.15942E-03  3558   0.525E-01    0.624E-02
DAV:   6    -0.537186489916E+02   -0.25308E-04   -0.37302E-04  3098   0.369E-01    0.385E-02
DAV:   7    -0.537186343444E+02    0.14647E-04   -0.17300E-04  2920   0.306E-01    0.116E-02
DAV:   8    -0.537186355309E+02   -0.11865E-05   -0.35037E-05  2835   0.949E-02    0.775E-03
DAV:   9    -0.537186354186E+02    0.11234E-06   -0.71127E-06  2016   0.504E-02
  16 F= -.53718635E+02 E0= -.53691292E+02  d E =-.945951E-02
       N       E                     dE             d eps       ncg     rms          rms(c)
DAV:   1    -0.537189694361E+02   -0.33391E-03   -0.30401E+00  2220   0.506E+00    0.214E-01
DAV:   2    -0.537255808725E+02   -0.66114E-02   -0.71268E-02  3295   0.171E+00    0.231E-01
DAV:   3    -0.537253849999E+02    0.19587E-03   -0.16286E-02  2853   0.126E+00    0.176E-01
DAV:   4    -0.537249777959E+02    0.40720E-03   -0.10105E-02  2718   0.134E+00    0.119E-01
DAV:   5    -0.537248242990E+02    0.15350E-03   -0.12990E-03  3518   0.476E-01    0.566E-02
DAV:   6    -0.537248452768E+02   -0.20978E-04   -0.29454E-04  3106   0.316E-01    0.332E-02
DAV:   7    -0.537248348276E+02    0.10449E-04   -0.13104E-04  2946   0.265E-01    0.105E-02
DAV:   8    -0.537248356946E+02   -0.86694E-06   -0.27900E-05  2706   0.846E-02    0.675E-03
DAV:   9    -0.537248357032E+02   -0.86729E-08   -0.52621E-06  1985   0.423E-02
  17 F= -.53724836E+02 E0= -.53697579E+02  d E =-.156598E-01
       N       E                     dE             d eps       ncg     rms          rms(c)
DAV:   1    -0.537054846511E+02    0.19351E-01   -0.12156E+01  2220   0.101E+01    0.435E-01
DAV:   2    -0.537336316578E+02   -0.28147E-01   -0.30370E-01  3295   0.359E+00    0.498E-01
DAV:   3    -0.537321609735E+02    0.14707E-02   -0.64743E-02  3004   0.249E+00    0.351E-01
DAV:   4    -0.537306371185E+02    0.15239E-02   -0.39621E-02  2718   0.264E+00    0.237E-01
DAV:   5    -0.537300142309E+02    0.62289E-03   -0.59575E-03  3631   0.972E-01    0.118E-01
DAV:   6    -0.537301145400E+02   -0.10031E-03   -0.14188E-03  3209   0.751E-01    0.826E-02
DAV:   7    -0.537300381667E+02    0.76373E-04   -0.73229E-04  2964   0.627E-01    0.224E-02
DAV:   8    -0.537300452665E+02   -0.70997E-05   -0.14015E-04  3217   0.186E-01    0.158E-02
DAV:   9    -0.537300451249E+02    0.14159E-06   -0.34990E-05  2648   0.111E-01    0.112E-02
DAV:  10    -0.537300443375E+02    0.78740E-06   -0.87548E-06  2326   0.604E-02
  18 F= -.53730044E+02 E0= -.53702987E+02  d E =-.208684E-01
       N       E                     dE             d eps       ncg     rms          rms(c)
DAV:   1    -0.537302832082E+02   -0.23808E-03   -0.21165E+00  2220   0.412E+00    0.248E-01
DAV:   2    -0.537360063084E+02   -0.57231E-02   -0.64916E-02  3375   0.159E+00    0.251E-01
DAV:   3    -0.537359891754E+02    0.17133E-04   -0.30411E-02  2928   0.205E+00    0.221E-01
DAV:   4    -0.537348504720E+02    0.11387E-02   -0.11695E-02  3136   0.130E+00    0.101E-01
DAV:   5    -0.537346982526E+02    0.15222E-03   -0.14533E-03  3285   0.671E-01    0.630E-02
DAV:   6    -0.537346518692E+02    0.46383E-04   -0.42133E-04  2945   0.472E-01    0.273E-02
DAV:   7    -0.537346529360E+02   -0.10668E-05   -0.14198E-04  3058   0.185E-01    0.141E-02
DAV:   8    -0.537346591233E+02   -0.61872E-05   -0.46551E-05  2563   0.109E-01    0.887E-03
DAV:   9    -0.537346650967E+02   -0.59735E-05   -0.13337E-05  2547   0.595E-02    0.421E-03
DAV:  10    -0.537346719345E+02   -0.68378E-05   -0.38238E-06  1927   0.286E-02    0.301E-03
DAV:  11    -0.537346773467E+02   -0.54122E-05   -0.13220E-06  1538   0.218E-02    0.169E-03
DAV:  12    -0.537346859894E+02   -0.86427E-05   -0.96350E-07  1587   0.122E-02    0.138E-03
DAV:  13    -0.537346911811E+02   -0.51916E-05   -0.61711E-07  1513   0.101E-02    0.800E-04
DAV:  14    -0.537346992552E+02   -0.80742E-05   -0.85464E-07  1563   0.576E-03    0.610E-04
DAV:  15    -0.537347033143E+02   -0.40591E-05   -0.35577E-07  1537   0.454E-03    0.519E-04
DAV:  16    -0.537347057374E+02   -0.24230E-05   -0.18366E-07  1512   0.392E-03    0.390E-04
DAV:  17    -0.537347069984E+02   -0.12610E-05   -0.11949E-07  1474   0.327E-03    0.296E-04
DAV:  18    -0.537347080380E+02   -0.10396E-05   -0.76585E-08  1466   0.200E-03    0.175E-04
DAV:  19    -0.537347090441E+02   -0.10061E-05   -0.51020E-08  1457   0.159E-03    0.187E-04
DAV:  20    -0.537347093250E+02   -0.28088E-06   -0.25056E-08  1360   0.140E-03
  19 F= -.53734709E+02 E0= -.53707679E+02  d E =-.466499E-02
       N       E                     dE             d eps       ncg     rms          rms(c)
DAV:   1    -0.537348107055E+02   -0.10166E-03   -0.66210E-02  2220   0.722E-01    0.444E-02
DAV:   2    -0.537349769443E+02   -0.16624E-03   -0.19456E-03  3371   0.259E-01    0.426E-02
DAV:   3    -0.537349842450E+02   -0.73007E-05   -0.98879E-04  2912   0.361E-01    0.411E-02
DAV:   4    -0.537349437726E+02    0.40472E-04   -0.39827E-04  2968   0.256E-01    0.181E-02
DAV:   5    -0.537349395834E+02    0.41892E-05   -0.44153E-05  3035   0.135E-01    0.127E-02
DAV:   6    -0.537349370863E+02    0.24971E-05   -0.16004E-05  2377   0.981E-02    0.528E-03
DAV:   7    -0.537349374658E+02   -0.37951E-06   -0.47176E-06  1924   0.389E-02
  20 F= -.53734937E+02 E0= -.53707903E+02  d E =-.489313E-02
       N       E                     dE             d eps       ncg     rms          rms(c)
DAV:   1    -0.537356855116E+02   -0.74843E-03   -0.50943E-02  2220   0.606E-01    0.292E-02
DAV:   2    -0.537358009755E+02   -0.11546E-03   -0.11938E-03  3057   0.151E-01    0.231E-02
DAV:   3    -0.537358038972E+02   -0.29217E-05   -0.98013E-05  2730   0.140E-01    0.207E-02
DAV:   4    -0.537358016263E+02    0.22709E-05   -0.13221E-04  2384   0.139E-01    0.162E-02
DAV:   5    -0.537358005335E+02    0.10929E-05   -0.86510E-05  2235   0.117E-01    0.122E-02
DAV:   6    -0.537357981012E+02    0.24323E-05   -0.16885E-05  2393   0.748E-02    0.250E-03
DAV:   7    -0.537357983298E+02   -0.22861E-06   -0.20944E-06  1768   0.151E-02
  21 F= -.53735798E+02 E0= -.53708757E+02  d E =-.860864E-03
       N       E                     dE             d eps       ncg     rms          rms(c)
DAV:   1    -0.537372524629E+02   -0.14544E-02   -0.45890E-01  2220   0.182E+00    0.877E-02
DAV:   2    -0.537382764896E+02   -0.10240E-02   -0.10597E-02  2829   0.396E-01    0.653E-02
DAV:   3    -0.537382742901E+02    0.21995E-05   -0.41086E-04  3017   0.245E-01    0.493E-02
DAV:   4    -0.537383478475E+02   -0.73557E-04   -0.12545E-03  3042   0.455E-01    0.609E-02
DAV:   5    -0.537382722108E+02    0.75637E-04   -0.13154E-03  3134   0.381E-01    0.308E-02
DAV:   6    -0.537382501974E+02    0.22013E-04   -0.12541E-04  3519   0.140E-01    0.589E-03
DAV:   7    -0.537382515078E+02   -0.13104E-05   -0.15279E-05  3186   0.439E-02    0.534E-03
DAV:   8    -0.537382513839E+02    0.12384E-06   -0.31099E-06  1804   0.357E-02
  22 F= -.53738251E+02 E0= -.53711192E+02  d E =-.331392E-02
       N       E                     dE             d eps       ncg     rms          rms(c)
DAV:   1    -0.537387001984E+02   -0.44869E-03   -0.18346E+00  2220   0.363E+00    0.176E-01
DAV:   2    -0.537428305950E+02   -0.41304E-02   -0.42781E-02  2768   0.806E-01    0.133E-01
DAV:   3    -0.537428302031E+02    0.39194E-06   -0.19271E-03  3012   0.533E-01    0.102E-01
DAV:   4    -0.537430684332E+02   -0.23823E-03   -0.50030E-03  3034   0.893E-01    0.117E-01
DAV:   5    -0.537427984617E+02    0.26997E-03   -0.45803E-03  3518   0.714E-01    0.615E-02
DAV:   6    -0.537427197313E+02    0.78730E-04   -0.45899E-04  3558   0.290E-01    0.123E-02
DAV:   7    -0.537427245744E+02   -0.48431E-05   -0.59816E-05  3223   0.100E-01    0.106E-02
DAV:   8    -0.537427240309E+02    0.54354E-06   -0.11723E-05  2184   0.698E-02    0.711E-03
DAV:   9    -0.537427236119E+02    0.41901E-06   -0.31572E-06  1825   0.310E-02
  23 F= -.53742724E+02 E0= -.53715633E+02  d E =-.778615E-02
       N       E                     dE             d eps       ncg     rms          rms(c)
DAV:   1    -0.537335225117E+02    0.92015E-02   -0.73221E+00  2220   0.725E+00    0.357E-01
DAV:   2    -0.537506280719E+02   -0.17106E-01   -0.17784E-01  2991   0.177E+00    0.284E-01
DAV:   3    -0.537506570895E+02   -0.29018E-04   -0.11109E-02  2876   0.143E+00    0.227E-01
DAV:   4    -0.537509881942E+02   -0.33110E-03   -0.19820E-02  3026   0.174E+00    0.218E-01
DAV:   5    -0.537502603824E+02    0.72781E-03   -0.13873E-02  3480   0.124E+00    0.126E-01
DAV:   6    -0.537499647821E+02    0.29560E-03   -0.18401E-03  3514   0.564E-01    0.253E-02
DAV:   7    -0.537499889887E+02   -0.24207E-04   -0.28024E-04  3204   0.214E-01    0.220E-02
DAV:   8    -0.537499864916E+02    0.24970E-05   -0.48458E-05  2928   0.137E-01    0.142E-02
DAV:   9    -0.537499846739E+02    0.18177E-05   -0.12571E-05  2434   0.616E-02    0.694E-03
DAV:  10    -0.537499844266E+02    0.24735E-06   -0.58402E-06  2156   0.415E-02
  24 F= -.53749984E+02 E0= -.53722832E+02  d E =-.150470E-01
       N       E                     dE             d eps       ncg     rms          rms(c)
DAV:   1    -0.536863669112E+02    0.63618E-01   -0.29136E+01  2220   0.144E+01    0.745E-01
DAV:   2    -0.537606698493E+02   -0.74303E-01   -0.77610E-01  3151   0.400E+00    0.625E-01
DAV:   3    -0.537609381944E+02   -0.26835E-03   -0.69981E-02  2820   0.361E+00    0.508E-01
DAV:   4    -0.537597121281E+02    0.12261E-02   -0.88425E-02  3143   0.358E+00    0.425E-01
DAV:   5    -0.537574257364E+02    0.22864E-02   -0.37867E-02  3940   0.193E+00    0.239E-01
DAV:   6    -0.537567120347E+02    0.71370E-03   -0.62126E-03  3332   0.108E+00    0.732E-02
DAV:   7    -0.537567582002E+02   -0.46166E-04   -0.13045E-03  3076   0.668E-01    0.479E-02
DAV:   8    -0.537567416853E+02    0.16515E-04   -0.27062E-04  3022   0.336E-01    0.294E-02
DAV:   9    -0.537567354356E+02    0.62497E-05   -0.69396E-05  2968   0.117E-01    0.157E-02
DAV:  10    -0.537567348586E+02    0.57707E-06   -0.27986E-05  2700   0.864E-02    0.844E-03
DAV:  11    -0.537567347083E+02    0.15026E-06   -0.77438E-06  2228   0.574E-02
  25 F= -.53756735E+02 E0= -.53729510E+02  d E =-.217972E-01
       N       E                     dE             d eps       ncg     rms          rms(c)
DAV:   1    -0.537580737476E+02   -0.13389E-02   -0.74458E-01  2220   0.221E+00    0.113E-01
DAV:   2    -0.537598572462E+02   -0.17835E-02   -0.18477E-02  2919   0.590E-01    0.946E-02
DAV:   3    -0.537600201869E+02   -0.16294E-03   -0.43822E-03  2964   0.771E-01    0.106E-01
DAV:   4    -0.537597905117E+02    0.22968E-03   -0.26340E-03  3031   0.603E-01    0.556E-02
DAV:   5    -0.537597893189E+02    0.11928E-05   -0.43363E-04  3012   0.344E-01    0.384E-02
DAV:   6    -0.537597647127E+02    0.24606E-04   -0.15779E-04  3069   0.297E-01    0.848E-03
DAV:   7    -0.537597660499E+02   -0.13372E-05   -0.29610E-05  3112   0.487E-02    0.643E-03
DAV:   8    -0.537597659266E+02    0.12331E-06   -0.46244E-06  1893   0.370E-02
  26 F= -.53759766E+02 E0= -.53732524E+02  d E =-.303122E-02
       N       E                     dE             d eps       ncg     rms          rms(c)
DAV:   1    -0.537516236610E+02    0.81424E-02   -0.66922E+00  2220   0.661E+00    0.343E-01
DAV:   2    -0.537681728114E+02   -0.16549E-01   -0.17141E-01  2950   0.188E+00    0.300E-01
DAV:   3    -0.537695935423E+02   -0.14207E-02   -0.45327E-02  2978   0.248E+00    0.325E-01
DAV:   4    -0.537673265569E+02    0.22670E-02   -0.24463E-02  3104   0.185E+00    0.171E-01
DAV:   5    -0.537672562606E+02    0.70296E-04   -0.33856E-03  3066   0.902E-01    0.103E-01
DAV:   6    -0.537671228014E+02    0.13346E-03   -0.13507E-03  3048   0.858E-01    0.358E-02
DAV:   7    -0.537671221149E+02    0.68647E-06   -0.26155E-04  3435   0.228E-01    0.175E-02
DAV:   8    -0.537671232504E+02   -0.11355E-05   -0.42949E-05  2876   0.877E-02    0.114E-02
DAV:   9    -0.537671229818E+02    0.26860E-06   -0.15135E-05  2344   0.743E-02    0.637E-03
DAV:  10    -0.537671234130E+02   -0.43120E-06   -0.37982E-06  2070   0.348E-02
  27 F= -.53767123E+02 E0= -.53739827E+02  d E =-.103887E-01
       N       E                     dE             d eps       ncg     rms          rms(c)
DAV:   1    -0.537093422836E+02    0.57781E-01   -0.26664E+01  2220   0.131E+01    0.705E-01
DAV:   2    -0.537799317505E+02   -0.70589E-01   -0.73394E-01  3142   0.411E+00    0.655E-01
DAV:   3    -0.537842746657E+02   -0.43429E-02   -0.19593E-01  2935   0.518E+00    0.654E-01
DAV:   4    -0.537750841816E+02    0.91905E-02   -0.99616E-02  3105   0.373E+00    0.367E-01
DAV:   5    -0.537744228160E+02    0.66137E-03   -0.12854E-02  3234   0.154E+00    0.176E-01
DAV:   6    -0.537742510149E+02    0.17180E-03   -0.50947E-03  3044   0.163E+00    0.104E-01
DAV:   7    -0.537741410622E+02    0.10995E-03   -0.11412E-03  3146   0.767E-01    0.362E-02
DAV:   8    -0.537741549740E+02   -0.13912E-04   -0.25985E-04  3226   0.196E-01    0.258E-02
DAV:   9    -0.537741546511E+02    0.32288E-06   -0.75301E-05  2624   0.161E-01    0.155E-02
DAV:  10    -0.537741554343E+02   -0.78318E-06   -0.19544E-05  2572   0.734E-02    0.564E-03
DAV:  11    -0.537741578582E+02   -0.24239E-05   -0.55579E-06  2321   0.348E-02    0.311E-03
DAV:  12    -0.537741594824E+02   -0.16242E-05   -0.23913E-06  1521   0.239E-02    0.156E-03
DAV:  13    -0.537741609841E+02   -0.15017E-05   -0.68194E-07  1457   0.123E-02    0.125E-03
DAV:  14    -0.537741623149E+02   -0.13308E-05   -0.37812E-07  1465   0.716E-03    0.699E-04
DAV:  15    -0.537741640992E+02   -0.17844E-05   -0.29754E-07  1483   0.395E-03    0.565E-04
DAV:  16    -0.537741648867E+02   -0.78743E-06   -0.13139E-07  1464   0.418E-03
  28 F= -.53774165E+02 E0= -.53746793E+02  d E =-.174302E-01
       N       E                     dE             d eps       ncg     rms          rms(c)
DAV:   1    -0.537752402970E+02   -0.10762E-02   -0.17830E-01  2234   0.105E+00    0.587E-02
DAV:   2    -0.537756398257E+02   -0.39953E-03   -0.42018E-03  2858   0.260E-01    0.441E-02
DAV:   3    -0.537756389530E+02    0.87271E-06   -0.24144E-04  2968   0.161E-01    0.323E-02
DAV:   4    -0.537756691510E+02   -0.30198E-04   -0.67237E-04  2972   0.295E-01    0.413E-02
DAV:   5    -0.537756293163E+02    0.39835E-04   -0.45532E-04  2703   0.283E-01    0.200E-02
DAV:   6    -0.537756244820E+02    0.48343E-05   -0.29525E-05  2976   0.116E-01    0.452E-03
DAV:   7    -0.537756249473E+02   -0.46525E-06   -0.59999E-06  2587   0.357E-02
  29 F= -.53775625E+02 E0= -.53748249E+02  d E =-.146006E-02
       N       E                     dE             d eps       ncg     rms          rms(c)
DAV:   1    -0.537753902051E+02    0.23428E-03   -0.16022E+00  2220   0.315E+00    0.179E-01
DAV:   2    -0.537790336623E+02   -0.36435E-02   -0.38300E-02  2858   0.780E-01    0.132E-01
DAV:   3    -0.537789854222E+02    0.48240E-04   -0.16148E-03  2955   0.370E-01    0.912E-02
DAV:   4    -0.537792629324E+02   -0.27751E-03   -0.46265E-03  3198   0.721E-01    0.117E-01
DAV:   5    -0.537789549545E+02    0.30798E-03   -0.49963E-03  2931   0.892E-01    0.677E-02
DAV:   6    -0.537788789334E+02    0.76021E-04   -0.52175E-04  3240   0.394E-01    0.134E-02
DAV:   7    -0.537788833385E+02   -0.44051E-05   -0.58482E-05  3313   0.933E-02    0.104E-02
DAV:   8    -0.537788845380E+02   -0.11995E-05   -0.10305E-05  2250   0.676E-02    0.599E-03
DAV:   9    -0.537788869304E+02   -0.23924E-05   -0.31663E-06  2004   0.299E-02    0.276E-03
DAV:  10    -0.537788883035E+02   -0.13731E-05   -0.10067E-06  1552   0.207E-02    0.122E-03
DAV:  11    -0.537788895872E+02   -0.12837E-05   -0.48599E-07  1436   0.105E-02    0.854E-04
DAV:  12    -0.537788910702E+02   -0.14830E-05   -0.38143E-07  1467   0.603E-03    0.635E-04
DAV:  13    -0.537788920295E+02   -0.95932E-06   -0.17928E-07  1474   0.426E-03
  30 F= -.53778892E+02 E0= -.53751511E+02  d E =-.472714E-02
       N       E                     dE             d eps       ncg     rms          rms(c)
DAV:   1    -0.537664427663E+02    0.12448E-01   -0.63848E+00  2220   0.632E+00    0.364E-01
DAV:   2    -0.537812981360E+02   -0.14855E-01   -0.15670E-01  2926   0.164E+00    0.266E-01
DAV:   3    -0.537810307870E+02    0.26735E-03   -0.64617E-03  2929   0.890E-01    0.182E-01
DAV:   4    -0.537819179558E+02   -0.88717E-03   -0.15547E-02  3237   0.137E+00    0.216E-01
DAV:   5    -0.537810420194E+02    0.87594E-03   -0.19882E-02  2977   0.173E+00    0.145E-01
DAV:   6    -0.537806682171E+02    0.37380E-03   -0.27721E-03  3264   0.833E-01    0.305E-02
DAV:   7    -0.537806821536E+02   -0.13936E-04   -0.26769E-04  3283   0.237E-01    0.234E-02
DAV:   8    -0.537806833100E+02   -0.11564E-05   -0.50707E-05  2849   0.137E-01    0.127E-02
DAV:   9    -0.537806915288E+02   -0.82189E-05   -0.15495E-05  2375   0.670E-02    0.697E-03
DAV:  10    -0.537806962073E+02   -0.46785E-05   -0.58271E-06  2154   0.515E-02    0.228E-03
DAV:  11    -0.537807002632E+02   -0.40559E-05   -0.12320E-06  1473   0.152E-02    0.160E-03
DAV:  12    -0.537807043011E+02   -0.40379E-05   -0.83295E-07  1506   0.916E-03    0.106E-03
DAV:  13    -0.537807083604E+02   -0.40593E-05   -0.48781E-07  1499   0.868E-03    0.928E-04
DAV:  14    -0.537807110085E+02   -0.26481E-05   -0.31009E-07  1496   0.619E-03    0.533E-04
DAV:  15    -0.537807143665E+02   -0.33581E-05   -0.36657E-07  1509   0.396E-03    0.523E-04
DAV:  16    -0.537807161255E+02   -0.17590E-05   -0.18253E-07  1512   0.439E-03    0.425E-04
DAV:  17    -0.537807183377E+02   -0.22122E-05   -0.25503E-07  1448   0.352E-03    0.275E-04
DAV:  18    -0.537807189701E+02   -0.63234E-06   -0.10831E-07  1496   0.245E-03
  31 F= -.53780719E+02 E0= -.53753330E+02  d E =-.655408E-02
       N       E                     dE             d eps       ncg     rms          rms(c)
DAV:   1    -0.537801151320E+02    0.60321E-03   -0.33165E-01  2220   0.146E+00    0.801E-02
DAV:   2    -0.537808730261E+02   -0.75789E-03   -0.79075E-03  2833   0.348E-01    0.593E-02
DAV:   3    -0.537808797615E+02   -0.67354E-05   -0.57432E-04  3013   0.234E-01    0.458E-02
DAV:   4    -0.537809182927E+02   -0.38531E-04   -0.13388E-03  3014   0.418E-01    0.544E-02
DAV:   5    -0.537808492024E+02    0.69090E-04   -0.63046E-04  2961   0.353E-01    0.249E-02
DAV:   6    -0.537808436183E+02    0.55841E-05   -0.41559E-05  3168   0.149E-01    0.600E-03
DAV:   7    -0.537808443772E+02   -0.75894E-06   -0.10309E-05  2827   0.480E-02    0.472E-03
DAV:   8    -0.537808444485E+02   -0.71333E-07   -0.19220E-06  1545   0.254E-02
  32 F= -.53780844E+02 E0= -.53753457E+02  d E =-.667956E-02
       N       E                     dE             d eps       ncg     rms          rms(c)
DAV:   1    -0.537810741707E+02   -0.22979E-03   -0.75227E-02  2220   0.687E-01    0.356E-02
DAV:   2    -0.537812491452E+02   -0.17497E-03   -0.17997E-03  2835   0.163E-01    0.265E-02
DAV:   3    -0.537812549623E+02   -0.58172E-05   -0.17080E-04  2863   0.152E-01    0.250E-02
DAV:   4    -0.537812509236E+02    0.40388E-05   -0.21453E-04  2674   0.173E-01    0.192E-02
DAV:   5    -0.537812458666E+02    0.50570E-05   -0.74116E-05  2236   0.106E-01    0.101E-02
DAV:   6    -0.537812445652E+02    0.13014E-05   -0.10136E-05  2514   0.687E-02    0.235E-03
DAV:   7    -0.537812447285E+02   -0.16324E-06   -0.18847E-06  1530   0.189E-02
  33 F= -.53781245E+02 E0= -.53753860E+02  d E =-.400280E-03
       N       E                     dE             d eps       ncg     rms          rms(c)
DAV:   1    -0.537808399668E+02    0.40460E-03   -0.67849E-01  2220   0.206E+00    0.109E-01
DAV:   2    -0.537824327354E+02   -0.15928E-02   -0.16395E-02  2828   0.543E-01    0.837E-02
DAV:   3    -0.537825164769E+02   -0.83741E-04   -0.21282E-03  2876   0.576E-01    0.843E-02
DAV:   4    -0.537824228586E+02    0.93618E-04   -0.21093E-03  3079   0.545E-01    0.553E-02
DAV:   5    -0.537824105738E+02    0.12285E-04   -0.75358E-04  3084   0.391E-01    0.420E-02
DAV:   6    -0.537823801156E+02    0.30458E-04   -0.16802E-04  3073   0.276E-01    0.834E-03
DAV:   7    -0.537823814803E+02   -0.13647E-05   -0.26296E-05  3289   0.510E-02    0.685E-03
DAV:   8    -0.537823812092E+02    0.27107E-06   -0.41227E-06  2043   0.349E-02
  34 F= -.53782381E+02 E0= -.53755008E+02  d E =-.153676E-02
       N       E                     dE             d eps       ncg     rms          rms(c)
DAV:   1    -0.537780674038E+02    0.43141E-02   -0.27117E+00  2220   0.412E+00    0.218E-01
DAV:   2    -0.537844602499E+02   -0.63928E-02   -0.65937E-02  2843   0.107E+00    0.168E-01
DAV:   3    -0.537848914022E+02   -0.43115E-03   -0.10041E-02  2900   0.123E+00    0.177E-01
DAV:   4    -0.537843814236E+02    0.50998E-03   -0.88032E-03  3063   0.111E+00    0.107E-01
DAV:   5    -0.537843478790E+02    0.33545E-04   -0.24929E-03  3148   0.692E-01    0.757E-02
DAV:   6    -0.537842476929E+02    0.10019E-03   -0.59509E-04  3041   0.526E-01    0.165E-02
DAV:   7    -0.537842523771E+02   -0.46841E-05   -0.10767E-04  3426   0.972E-02    0.134E-02
DAV:   8    -0.537842511592E+02    0.12178E-05   -0.16430E-05  2720   0.600E-02    0.730E-03
DAV:   9    -0.537842505871E+02    0.57218E-06   -0.56077E-06  1968   0.419E-02
  35 F= -.53784251E+02 E0= -.53756891E+02  d E =-.340614E-02
       N       E                     dE             d eps       ncg     rms          rms(c)
DAV:   1    -0.537611152597E+02    0.23136E-01   -0.10819E+01  2220   0.822E+00    0.443E-01
DAV:   2    -0.537874320055E+02   -0.26317E-01   -0.27225E-01  2923   0.223E+00    0.351E-01
DAV:   3    -0.537893703881E+02   -0.19384E-02   -0.48235E-02  2868   0.267E+00    0.369E-01
DAV:   4    -0.537868296504E+02    0.25407E-02   -0.37855E-02  3102   0.230E+00    0.217E-01
DAV:   5    -0.537865823144E+02    0.24734E-03   -0.80102E-03  3242   0.112E+00    0.125E-01
DAV:   6    -0.537863770535E+02    0.20526E-03   -0.20835E-03  3068   0.910E-01    0.399E-02
DAV:   7    -0.537863890605E+02   -0.12007E-04   -0.37334E-04  3347   0.300E-01    0.263E-02
DAV:   8    -0.537863857201E+02    0.33404E-05   -0.71249E-05  3104   0.142E-01    0.151E-02
DAV:   9    -0.537863841659E+02    0.15543E-05   -0.24530E-05  2456   0.919E-02    0.852E-03
DAV:  10    -0.537863838227E+02    0.34313E-06   -0.80757E-06  2281   0.576E-02
  36 F= -.53786384E+02 E0= -.53759073E+02  d E =-.553937E-02
       N       E                     dE             d eps       ncg     rms          rms(c)
DAV:   1    -0.537875367698E+02   -0.11526E-02   -0.18394E-01  2220   0.126E+00    0.602E-02
DAV:   2    -0.537879227001E+02   -0.38593E-03   -0.44048E-03  3260   0.397E-01    0.631E-02
DAV:   3    -0.537879145964E+02    0.81036E-05   -0.18645E-03  2915   0.492E-01    0.547E-02
DAV:   4    -0.537878540136E+02    0.60583E-04   -0.70578E-04  2970   0.366E-01    0.299E-02
DAV:   5    -0.537878383272E+02    0.15686E-04   -0.73709E-05  3153   0.165E-01    0.143E-02
DAV:   6    -0.537878363079E+02    0.20193E-05   -0.28800E-05  3008   0.106E-01    0.726E-03
DAV:   7    -0.537878364594E+02   -0.15146E-06   -0.79676E-06  2075   0.555E-02
  37 F= -.53787836E+02 E0= -.53760548E+02  d E =-.145264E-02
       N       E                     dE             d eps       ncg     rms          rms(c)
DAV:   1    -0.537881176241E+02   -0.28132E-03   -0.10498E-01  2234   0.950E-01    0.468E-02
DAV:   2    -0.537883365494E+02   -0.21893E-03   -0.24947E-03  3285   0.317E-01    0.460E-02
DAV:   3    -0.537883372903E+02   -0.74098E-06   -0.84290E-04  2981   0.332E-01    0.408E-02
DAV:   4    -0.537883090743E+02    0.28216E-04   -0.53772E-04  2804   0.303E-01    0.266E-02
DAV:   5    -0.537882940676E+02    0.15007E-04   -0.71047E-05  2984   0.134E-01    0.107E-02
DAV:   6    -0.537882935753E+02    0.49229E-06   -0.18905E-05  3040   0.724E-02    0.646E-03
DAV:   7    -0.537882937536E+02   -0.17826E-06   -0.51455E-06  2012   0.482E-02
  38 F= -.53788294E+02 E0= -.53761024E+02  d E =-.190993E-02
       N       E                     dE             d eps       ncg     rms          rms(c)
DAV:   1    -0.537890202547E+02   -0.72668E-03   -0.38068E-02  2255   0.580E-01    0.187E-02
DAV:   2    -0.537890893777E+02   -0.69123E-04   -0.73216E-04  3306   0.183E-01    0.231E-02
DAV:   3    -0.537890874425E+02    0.19352E-05   -0.23678E-04  2875   0.187E-01    0.177E-02
DAV:   4    -0.537890822200E+02    0.52225E-05   -0.52727E-05  2368   0.105E-01    0.980E-03
DAV:   5    -0.537890829532E+02   -0.73315E-06   -0.70808E-06  2194   0.491E-02
  39 F= -.53789083E+02 E0= -.53761826E+02  d E =-.789200E-03
       N       E                     dE             d eps       ncg     rms          rms(c)
DAV:   1    -0.537904418839E+02   -0.13597E-02   -0.34255E-01  2234   0.174E+00    0.561E-02
DAV:   2    -0.537910703872E+02   -0.62850E-03   -0.67504E-03  3299   0.607E-01    0.753E-02
DAV:   3    -0.537910220851E+02    0.48302E-04   -0.20625E-03  2847   0.553E-01    0.511E-02
DAV:   4    -0.537909835845E+02    0.38501E-04   -0.49336E-04  2842   0.317E-01    0.314E-02
DAV:   5    -0.537909782426E+02    0.53419E-05   -0.79982E-05  3052   0.157E-01    0.213E-02
DAV:   6    -0.537909764434E+02    0.17992E-05   -0.42505E-05  3121   0.120E-01    0.965E-03
DAV:   7    -0.537909760463E+02    0.39706E-06   -0.13329E-05  2530   0.683E-02    0.340E-03
DAV:   8    -0.537909762555E+02   -0.20914E-06   -0.36656E-06  1609   0.235E-02
  40 F= -.53790976E+02 E0= -.53763756E+02  d E =-.268250E-02
       N       E                     dE             d eps       ncg     rms          rms(c)
DAV:   1    -0.537905335269E+02    0.44252E-03   -0.13698E+00  2220   0.348E+00    0.115E-01
DAV:   2    -0.537930163569E+02   -0.24828E-02   -0.26672E-02  3278   0.113E+00    0.146E-01
DAV:   3    -0.537928786303E+02    0.13773E-03   -0.79303E-03  2780   0.105E+00    0.111E-01
DAV:   4    -0.537926871982E+02    0.19143E-03   -0.24433E-03  2743   0.701E-01    0.632E-02
DAV:   5    -0.537926561955E+02    0.31003E-04   -0.33054E-04  3380   0.269E-01    0.404E-02
DAV:   6    -0.537926514286E+02    0.47669E-05   -0.17197E-04  3122   0.281E-01    0.253E-02
DAV:   7    -0.537926439415E+02    0.74870E-05   -0.74236E-05  3137   0.194E-01    0.683E-03
DAV:   8    -0.537926458177E+02   -0.18762E-05   -0.16770E-05  2586   0.608E-02    0.550E-03
DAV:   9    -0.537926472225E+02   -0.14048E-05   -0.40445E-06  1947   0.348E-02    0.329E-03
DAV:  10    -0.537926489478E+02   -0.17253E-05   -0.16238E-06  1539   0.192E-02    0.140E-03
DAV:  11    -0.537926501271E+02   -0.11793E-05   -0.73835E-07  1466   0.137E-02    0.121E-03
DAV:  12    -0.537926510354E+02   -0.90824E-06   -0.37412E-07  1435   0.876E-03
  41 F= -.53792651E+02 E0= -.53765517E+02  d E =-.435728E-02
       N       E                     dE             d eps       ncg     rms          rms(c)
DAV:   1    -0.537930156793E+02   -0.36555E-03   -0.12357E-01  2220   0.105E+00    0.374E-02
DAV:   2    -0.537932271314E+02   -0.21145E-03   -0.22185E-03  3298   0.283E-01    0.299E-02
DAV:   3    -0.537932264944E+02    0.63702E-06   -0.13679E-04  2667   0.166E-01    0.225E-02
DAV:   4    -0.537932328309E+02   -0.63365E-05   -0.24180E-04  2717   0.189E-01    0.247E-02
DAV:   5    -0.537932210115E+02    0.11819E-04   -0.16991E-04  2521   0.173E-01    0.131E-02
DAV:   6    -0.537932192415E+02    0.17700E-05   -0.26126E-05  2945   0.660E-02    0.445E-03
DAV:   7    -0.537932191764E+02    0.65076E-07   -0.47392E-06  2035   0.331E-02
  42 F= -.53793219E+02 E0= -.53766109E+02  d E =-.568141E-03
       N       E                     dE             d eps       ncg     rms          rms(c)
DAV:   1    -0.537933470319E+02   -0.12779E-03   -0.14615E-01  2220   0.114E+00    0.407E-02
DAV:   2    -0.537935979487E+02   -0.25092E-03   -0.26386E-03  3306   0.304E-01    0.320E-02
DAV:   3    -0.537935999479E+02   -0.19992E-05   -0.19776E-04  2693   0.194E-01    0.270E-02
DAV:   4    -0.537936022001E+02   -0.22522E-05   -0.32778E-04  2823   0.224E-01    0.264E-02
DAV:   5    -0.537935882481E+02    0.13952E-04   -0.16153E-04  2368   0.181E-01    0.137E-02
DAV:   6    -0.537935865504E+02    0.16977E-05   -0.33887E-05  3432   0.831E-02    0.571E-03
DAV:   7    -0.537935860028E+02    0.54762E-06   -0.56981E-06  1920   0.429E-02
  43 F= -.53793586E+02 E0= -.53766502E+02  d E =-.934967E-03
       N       E                     dE             d eps       ncg     rms          rms(c)
DAV:   1    -0.537925554131E+02    0.10311E-02   -0.58452E-01  2220   0.229E+00    0.825E-02
DAV:   2    -0.537935776839E+02   -0.10223E-02   -0.10841E-02  3263   0.683E-01    0.716E-02
DAV:   3    -0.537935664179E+02    0.11266E-04   -0.87973E-04  2636   0.478E-01    0.525E-02
DAV:   4    -0.537935917112E+02   -0.25293E-04   -0.13164E-03  2991   0.455E-01    0.550E-02
DAV:   5    -0.537935269022E+02    0.64809E-04   -0.74485E-04  3103   0.345E-01    0.274E-02
DAV:   6    -0.537935199315E+02    0.69707E-05   -0.11254E-04  3832   0.140E-01    0.117E-02
DAV:   7    -0.537935182774E+02    0.16541E-05   -0.20437E-05  2956   0.902E-02    0.517E-03
DAV:   8    -0.537935186240E+02   -0.34663E-06   -0.44021E-06  1985   0.345E-02
  44 F= -.53793519E+02 E0= -.53766486E+02  d E =-.867589E-03
       N       E                     dE             d eps       ncg     rms          rms(c)
DAV:   1    -0.537933616440E+02    0.15663E-03   -0.19849E-01  2220   0.133E+00    0.481E-02
DAV:   2    -0.537937016865E+02   -0.34004E-03   -0.36138E-03  3277   0.366E-01    0.415E-02
DAV:   3    -0.537936936566E+02    0.80299E-05   -0.21594E-04  2629   0.187E-01    0.284E-02
DAV:   4    -0.537937062816E+02   -0.12625E-04   -0.37790E-04  3118   0.225E-01    0.322E-02
DAV:   5    -0.537936856567E+02    0.20625E-04   -0.29757E-04  2624   0.223E-01    0.161E-02
DAV:   6    -0.537936841795E+02    0.14772E-05   -0.49515E-05  3658   0.973E-02    0.702E-03
DAV:   7    -0.537936835523E+02    0.62722E-06   -0.76577E-06  2224   0.566E-02
  45 F= -.53793684E+02 E0= -.53766622E+02  d E =-.103252E-02
       N       E                     dE             d eps       ncg     rms          rms(c)
DAV:   1    -0.537940179127E+02   -0.33373E-03   -0.12561E-01  2220   0.105E+00    0.357E-02
DAV:   2    -0.537942380767E+02   -0.22016E-03   -0.23365E-03  3299   0.312E-01    0.364E-02
DAV:   3    -0.537942454157E+02   -0.73390E-05   -0.65122E-04  2912   0.311E-01    0.331E-02
DAV:   4    -0.537942221676E+02    0.23248E-04   -0.25924E-04  2672   0.204E-01    0.179E-02
DAV:   5    -0.537942209294E+02    0.12382E-05   -0.31007E-05  3138   0.100E-01    0.115E-02
DAV:   6    -0.537942203560E+02    0.57346E-06   -0.15628E-05  2752   0.874E-02    0.478E-03
DAV:   7    -0.537942202718E+02    0.84197E-07   -0.44997E-06  1804   0.370E-02
  46 F= -.53794220E+02 E0= -.53767185E+02  d E =-.536719E-03
       N       E                     dE             d eps       ncg     rms          rms(c)
DAV:   1    -0.537934565551E+02    0.76380E-03   -0.11303E+00  2220   0.317E+00    0.112E-01
DAV:   2    -0.537955281423E+02   -0.20716E-02   -0.21886E-02  3264   0.943E-01    0.115E-01
DAV:   3    -0.537955483235E+02   -0.20181E-04   -0.49436E-03  2861   0.804E-01    0.101E-01
DAV:   4    -0.537953825575E+02    0.16577E-03   -0.26806E-03  2670   0.686E-01    0.601E-02
DAV:   5    -0.537953509159E+02    0.31642E-04   -0.38909E-04  3380   0.304E-01    0.346E-02
DAV:   6    -0.537953540857E+02   -0.31698E-05   -0.14229E-04  3267   0.244E-01    0.213E-02
DAV:   7    -0.537953485265E+02    0.55592E-05   -0.56010E-05  3146   0.172E-01    0.613E-03
DAV:   8    -0.537953490704E+02   -0.54383E-06   -0.11055E-05  2410   0.506E-02    0.479E-03
DAV:   9    -0.537953492683E+02   -0.19796E-06   -0.29334E-06  1826   0.299E-02
  47 F= -.53795349E+02 E0= -.53768396E+02  d E =-.166572E-02
       N       E                     dE             d eps       ncg     rms          rms(c)
DAV:   1    -0.537871386293E+02    0.82104E-02   -0.45150E+00  2220   0.634E+00    0.237E-01
DAV:   2    -0.537961724815E+02   -0.90339E-02   -0.96242E-02  3264   0.208E+00    0.258E-01
DAV:   3    -0.537958280059E+02    0.34448E-03   -0.16824E-02  2820   0.147E+00    0.193E-01
DAV:   4    -0.537954142881E+02    0.41372E-03   -0.10542E-02  2668   0.134E+00    0.130E-01
DAV:   5    -0.537952194410E+02    0.19485E-03   -0.22014E-03  3618   0.619E-01    0.731E-02
DAV:   6    -0.537952382098E+02   -0.18769E-04   -0.65541E-04  3243   0.501E-01    0.504E-02
DAV:   7    -0.537952049894E+02    0.33220E-04   -0.27612E-04  3059   0.374E-01    0.123E-02
DAV:   8    -0.537952084904E+02   -0.35011E-05   -0.55765E-05  3316   0.102E-01    0.103E-02
DAV:   9    -0.537952089876E+02   -0.49721E-06   -0.11317E-05  2282   0.658E-02    0.678E-03
DAV:  10    -0.537952097895E+02   -0.80184E-06   -0.37078E-06  1961   0.362E-02
  48 F= -.53795210E+02 E0= -.53768437E+02  d E =-.152624E-02
       N       E                     dE             d eps       ncg     rms          rms(c)
DAV:   1    -0.537933854084E+02    0.18236E-02   -0.13202E+00  2220   0.343E+00    0.121E-01
DAV:   2    -0.537959562634E+02   -0.25709E-02   -0.27164E-02  3271   0.122E+00    0.143E-01
DAV:   3    -0.537959281544E+02    0.28109E-04   -0.74906E-03  2873   0.115E+00    0.105E-01
DAV:   4    -0.537957144780E+02    0.21368E-03   -0.29488E-03  3257   0.618E-01    0.634E-02
DAV:   5    -0.537956951293E+02    0.19349E-04   -0.56584E-04  3512   0.279E-01    0.407E-02
DAV:   6    -0.537956870541E+02    0.80752E-05   -0.18205E-04  3129   0.248E-01    0.167E-02
DAV:   7    -0.537956865941E+02    0.45996E-06   -0.57283E-05  3107   0.137E-01    0.878E-03
DAV:   8    -0.537956861564E+02    0.43772E-06   -0.96093E-06  2273   0.548E-02
  49 F= -.53795686E+02 E0= -.53768815E+02  d E =-.200260E-02
       N       E                     dE             d eps       ncg     rms          rms(c)
DAV:   1    -0.537957899024E+02   -0.10331E-03   -0.55464E-01  2220   0.218E+00    0.830E-02
DAV:   2    -0.537968079385E+02   -0.10180E-02   -0.10667E-02  3313   0.573E-01    0.596E-02
DAV:   3    -0.537968131783E+02   -0.52399E-05   -0.57830E-04  2852   0.347E-01    0.498E-02
DAV:   4    -0.537968366019E+02   -0.23424E-04   -0.11518E-03  3023   0.435E-01    0.503E-02
DAV:   5    -0.537967896399E+02    0.46962E-04   -0.86219E-04  3143   0.367E-01    0.314E-02
DAV:   6    -0.537967738294E+02    0.15811E-04   -0.15157E-04  3704   0.179E-01    0.682E-03
DAV:   7    -0.537967742228E+02   -0.39340E-06   -0.14487E-05  2946   0.308E-02    0.450E-03
DAV:   8    -0.537967743080E+02   -0.85216E-07   -0.20550E-06  1618   0.260E-02
  50 F= -.53796774E+02 E0= -.53769951E+02  d E =-.108815E-02
       N       E                     dE             d eps       ncg     rms          rms(c)
DAV:   1    -0.537951155798E+02    0.16586E-02   -0.12654E+00  2220   0.328E+00    0.127E-01
DAV:   2    -0.537974687368E+02   -0.23532E-02   -0.24625E-02  3292   0.898E-01    0.952E-02
DAV:   3    -0.537975744211E+02   -0.10568E-03   -0.28357E-03  2759   0.764E-01    0.948E-02
DAV:   4    -0.537974814188E+02    0.93002E-04   -0.34210E-03  3009   0.719E-01    0.676E-02
DAV:   5    -0.537974092146E+02    0.72204E-04   -0.12191E-03  3665   0.393E-01    0.400E-02
DAV:   6    -0.537973870149E+02    0.22200E-04   -0.20748E-04  3408   0.227E-01    0.104E-02
DAV:   7    -0.537973882368E+02   -0.12219E-05   -0.32876E-05  3403   0.880E-02    0.776E-03
DAV:   8    -0.537973884119E+02   -0.17506E-06   -0.78163E-06  2009   0.530E-02
  51 F= -.53797388E+02 E0= -.53770640E+02  d E =-.170226E-02
       N       E                     dE             d eps       ncg     rms          rms(c)
DAV:   1    -0.537977332497E+02   -0.34501E-03   -0.28682E-01  2220   0.155E+00    0.598E-02
DAV:   2    -0.537983034479E+02   -0.57020E-03   -0.59915E-03  3299   0.465E-01    0.583E-02
DAV:   3    -0.537983245544E+02   -0.21107E-04   -0.13501E-03  2949   0.424E-01    0.531E-02
DAV:   4    -0.537982730275E+02    0.51527E-04   -0.82217E-04  2903   0.367E-01    0.327E-02
DAV:   5    -0.537982664090E+02    0.66185E-05   -0.12777E-04  3323   0.198E-01    0.202E-02
DAV:   6    -0.537982664609E+02   -0.51979E-07   -0.41654E-05  3258   0.144E-01    0.898E-03
DAV:   7    -0.537982660962E+02    0.36476E-06   -0.11948E-05  2664   0.681E-02    0.327E-03
DAV:   8    -0.537982663139E+02   -0.21767E-06   -0.25144E-06  1490   0.161E-02
  52 F= -.53798266E+02 E0= -.53771560E+02  d E =-.877902E-03
       N       E                     dE             d eps       ncg     rms          rms(c)
DAV:   1    -0.537945670912E+02    0.36990E-02   -0.25797E+00  2220   0.465E+00    0.184E-01
DAV:   2    -0.537996854348E+02   -0.51183E-02   -0.54398E-02  3306   0.135E+00    0.174E-01
DAV:   3    -0.537996779132E+02    0.75217E-05   -0.90189E-03  3092   0.886E-01    0.147E-01
DAV:   4    -0.537994182309E+02    0.25968E-03   -0.69989E-03  2684   0.107E+00    0.107E-01
DAV:   5    -0.537992711785E+02    0.14705E-03   -0.11970E-03  3238   0.516E-01    0.520E-02
DAV:   6    -0.537992785777E+02   -0.73992E-05   -0.27810E-04  3337   0.237E-01    0.244E-02
DAV:   7    -0.537992742533E+02    0.43244E-05   -0.80164E-05  2968   0.214E-01    0.108E-02
DAV:   8    -0.537992746040E+02   -0.35070E-06   -0.18519E-05  2371   0.770E-02    0.648E-03
DAV:   9    -0.537992760125E+02   -0.14085E-05   -0.61424E-06  2097   0.438E-02    0.466E-03
DAV:  10    -0.537992771569E+02   -0.11444E-05   -0.27010E-06  1730   0.326E-02    0.136E-03
DAV:  11    -0.537992782315E+02   -0.10747E-05   -0.12056E-06  1480   0.102E-02    0.919E-04
DAV:  12    -0.537992791558E+02   -0.92422E-06   -0.51037E-07  1452   0.653E-03
  53 F= -.53799279E+02 E0= -.53772708E+02  d E =-.189074E-02
       N       E                     dE             d eps       ncg     rms          rms(c)
DAV:   1    -0.537994783096E+02   -0.20008E-03   -0.16613E-01  2220   0.117E+00    0.451E-02
DAV:   2    -0.537998067134E+02   -0.32840E-03   -0.34019E-03  3313   0.313E-01    0.326E-02
DAV:   3    -0.537998389004E+02   -0.32187E-04   -0.58910E-04  2808   0.306E-01    0.400E-02
DAV:   4    -0.537998035408E+02    0.35360E-04   -0.46034E-04  2880   0.257E-01    0.196E-02
DAV:   5    -0.537998025959E+02    0.94491E-06   -0.82203E-05  3457   0.110E-01    0.129E-02
DAV:   6    -0.537997999230E+02    0.26729E-05   -0.19806E-05  2848   0.848E-02    0.316E-03
DAV:   7    -0.537998001047E+02   -0.18170E-06   -0.40156E-06  1787   0.240E-02
  54 F= -.53799800E+02 E0= -.53773253E+02  d E =-.520949E-03
       N       E                     dE             d eps       ncg     rms          rms(c)
DAV:   1    -0.537976937383E+02    0.21062E-02   -0.14957E+00  2220   0.350E+00    0.136E-01
DAV:   2    -0.538006739723E+02   -0.29802E-02   -0.30894E-02  3257   0.101E+00    0.106E-01
DAV:   3    -0.538009270446E+02   -0.25307E-03   -0.55906E-03  2713   0.102E+00    0.121E-01
DAV:   4    -0.538006342583E+02    0.29279E-03   -0.42897E-03  3017   0.782E-01    0.617E-02
DAV:   5    -0.538006071799E+02    0.27078E-04   -0.93865E-04  3613   0.312E-01    0.395E-02
DAV:   6    -0.538005818203E+02    0.25360E-04   -0.23171E-04  3384   0.199E-01    0.970E-03
DAV:   7    -0.538005835146E+02   -0.16943E-05   -0.34909E-05  3248   0.733E-02    0.877E-03
DAV:   8    -0.538005829648E+02    0.54983E-06   -0.75645E-06  2107   0.562E-02
  55 F= -.53800583E+02 E0= -.53774102E+02  d E =-.130381E-02
       N       E                     dE             d eps       ncg     rms          rms(c)
DAV:   1    -0.538007998388E+02   -0.21632E-03   -0.31739E-01  2220   0.161E+00    0.630E-02
DAV:   2    -0.538014793564E+02   -0.67952E-03   -0.71505E-03  3264   0.479E-01    0.572E-02
DAV:   3    -0.538014972614E+02   -0.17905E-04   -0.10851E-03  3017   0.362E-01    0.514E-02
DAV:   4    -0.538014579574E+02    0.39304E-04   -0.86468E-04  2709   0.362E-01    0.378E-02
DAV:   5    -0.538014423765E+02    0.15581E-04   -0.12035E-04  3059   0.188E-01    0.207E-02
DAV:   6    -0.538014415113E+02    0.86520E-06   -0.43173E-05  3298   0.115E-01    0.866E-03
DAV:   7    -0.538014409746E+02    0.53673E-06   -0.11784E-05  2368   0.709E-02    0.406E-03
DAV:   8    -0.538014409598E+02    0.14756E-07   -0.30424E-06  1584   0.238E-02
  56 F= -.53801441E+02 E0= -.53774987E+02  d E =-.857995E-03
       N       E                     dE             d eps       ncg     rms          rms(c)
DAV:   1    -0.537998857784E+02    0.15552E-02   -0.10959E+00  2220   0.299E+00    0.117E-01
DAV:   2    -0.538022002508E+02   -0.23145E-02   -0.24431E-02  3257   0.836E-01    0.105E-01
DAV:   3    -0.538022398262E+02   -0.39575E-04   -0.34223E-03  3269   0.544E-01    0.938E-02
DAV:   4    -0.538021230977E+02    0.11673E-03   -0.28446E-03  2709   0.658E-01    0.702E-02
DAV:   5    -0.538020588038E+02    0.64294E-04   -0.43242E-04  3124   0.334E-01    0.370E-02
DAV:   6    -0.538020518809E+02    0.69229E-05   -0.12268E-04  3474   0.116E-01    0.106E-02
DAV:   7    -0.538020531344E+02   -0.12534E-05   -0.26970E-05  2867   0.961E-02    0.798E-03
DAV:   8    -0.538020536241E+02   -0.48970E-06   -0.54885E-06  2002   0.507E-02
  57 F= -.53802054E+02 E0= -.53775654E+02  d E =-.147066E-02
       N       E                     dE             d eps       ncg     rms          rms(c)
DAV:   1    -0.538022457362E+02   -0.19260E-03   -0.20593E-01  2220   0.130E+00    0.480E-02
DAV:   2    -0.538026781639E+02   -0.43243E-03   -0.44341E-03  3313   0.391E-01    0.386E-02
DAV:   3    -0.538027060805E+02   -0.27917E-04   -0.65272E-04  2735   0.359E-01    0.409E-02
DAV:   4    -0.538026745234E+02    0.31557E-04   -0.49322E-04  2945   0.264E-01    0.229E-02
DAV:   5    -0.538026721935E+02    0.23299E-05   -0.11233E-04  3161   0.133E-01    0.168E-02
DAV:   6    -0.538026698387E+02    0.23548E-05   -0.27948E-05  3193   0.869E-02    0.394E-03
DAV:   7    -0.538026700062E+02   -0.16752E-06   -0.71068E-06  2235   0.329E-02
  58 F= -.53802670E+02 E0= -.53776288E+02  d E =-.616382E-03
       N       E                     dE             d eps       ncg     rms          rms(c)
DAV:   1    -0.538002433196E+02    0.24265E-02   -0.18542E+00  2220   0.389E+00    0.143E-01
DAV:   2    -0.538041055100E+02   -0.38622E-02   -0.39676E-02  3243   0.113E+00    0.114E-01
DAV:   3    -0.538043131547E+02   -0.20764E-03   -0.53081E-03  2761   0.100E+00    0.120E-01
DAV:   4    -0.538040648123E+02    0.24834E-03   -0.41405E-03  2969   0.779E-01    0.689E-02
DAV:   5    -0.538040236255E+02    0.41187E-04   -0.10018E-03  3541   0.361E-01    0.460E-02
DAV:   6    -0.538039948624E+02    0.28763E-04   -0.25852E-04  3384   0.220E-01    0.104E-02
DAV:   7    -0.538039971803E+02   -0.23179E-05   -0.42219E-05  3305   0.692E-02    0.887E-03
DAV:   8    -0.538039967153E+02    0.46499E-06   -0.92162E-06  2216   0.557E-02
  59 F= -.53803997E+02 E0= -.53777645E+02  d E =-.194309E-02
       N       E                     dE             d eps       ncg     rms          rms(c)
DAV:   1    -0.537884659476E+02    0.15531E-01   -0.74205E+00  2220   0.779E+00    0.292E-01
DAV:   2    -0.538046360119E+02   -0.16170E-01   -0.16698E-01  3257   0.262E+00    0.275E-01
DAV:   3    -0.538051336330E+02   -0.49762E-03   -0.26389E-02  2738   0.236E+00    0.243E-01
DAV:   4    -0.538041552984E+02    0.97833E-03   -0.17948E-02  3218   0.157E+00    0.148E-01
DAV:   5    -0.538039050509E+02    0.25025E-03   -0.41522E-03  3654   0.615E-01    0.942E-02
DAV:   6    -0.538038266862E+02    0.78365E-04   -0.98982E-04  3304   0.399E-01    0.328E-02
DAV:   7    -0.538038307206E+02   -0.40344E-05   -0.23193E-04  3046   0.278E-01    0.200E-02
DAV:   8    -0.538038287114E+02    0.20092E-05   -0.51395E-05  2904   0.145E-01    0.119E-02
DAV:   9    -0.538038284629E+02    0.24852E-06   -0.16515E-05  2770   0.583E-02    0.614E-03
DAV:  10    -0.538038290872E+02   -0.62428E-06   -0.56267E-06  2120   0.402E-02
  60 F= -.53803829E+02 E0= -.53777553E+02  d E =-.177546E-02
       N       E                     dE             d eps       ncg     rms          rms(c)
DAV:   1    -0.538005178407E+02    0.33106E-02   -0.19336E+00  2220   0.396E+00    0.150E-01
DAV:   2    -0.538045543923E+02   -0.40366E-02   -0.41870E-02  3263   0.112E+00    0.123E-01
DAV:   3    -0.538044633154E+02    0.91077E-04   -0.15630E-03  2780   0.437E-01    0.819E-02
DAV:   4    -0.538045305444E+02   -0.67229E-04   -0.19338E-03  3385   0.460E-01    0.800E-02
DAV:   5    -0.538044593879E+02    0.71156E-04   -0.26967E-03  2987   0.645E-01    0.634E-02
DAV:   6    -0.538043988048E+02    0.60583E-04   -0.70599E-04  3891   0.382E-01    0.189E-02
DAV:   7    -0.538043965172E+02    0.22876E-05   -0.81192E-05  3273   0.173E-01    0.111E-02
DAV:   8    -0.538043958254E+02    0.69177E-06   -0.14042E-05  2744   0.669E-02    0.591E-03
DAV:   9    -0.538043959158E+02   -0.90426E-07   -0.37592E-06  2005   0.317E-02
  61 F= -.53804396E+02 E0= -.53778081E+02  d E =-.234229E-02
       N       E                     dE             d eps       ncg     rms          rms(c)
DAV:   1    -0.538043196726E+02    0.76153E-04   -0.39467E-01  2220   0.178E+00    0.638E-02
DAV:   2    -0.538051524411E+02   -0.83277E-03   -0.85917E-03  3277   0.487E-01    0.537E-02
DAV:   3    -0.538051772375E+02   -0.24796E-04   -0.88240E-04  2857   0.353E-01    0.514E-02
DAV:   4    -0.538051395470E+02    0.37690E-04   -0.79000E-04  2914   0.335E-01    0.369E-02
DAV:   5    -0.538051267862E+02    0.12761E-04   -0.18367E-04  3291   0.210E-01    0.229E-02
DAV:   6    -0.538051212811E+02    0.55051E-05   -0.48454E-05  3320   0.151E-01    0.647E-03
DAV:   7    -0.538051215878E+02   -0.30667E-06   -0.10038E-05  2632   0.570E-02    0.445E-03
DAV:   8    -0.538051216970E+02   -0.10928E-06   -0.20275E-06  1418   0.308E-02
  62 F= -.53805122E+02 E0= -.53778815E+02  d E =-.725781E-03
       N       E                     dE             d eps       ncg     rms          rms(c)
DAV:   1    -0.537987385076E+02    0.63831E-02   -0.35525E+00  2220   0.536E+00    0.197E-01
DAV:   2    -0.538064370849E+02   -0.76986E-02   -0.79511E-02  3278   0.151E+00    0.172E-01
DAV:   3    -0.538063664088E+02    0.70676E-04   -0.46549E-03  2644   0.695E-01    0.133E-01
DAV:   4    -0.538064090977E+02   -0.42689E-04   -0.64355E-03  2900   0.957E-01    0.128E-01
DAV:   5    -0.538061410396E+02    0.26806E-03   -0.27012E-03  3055   0.732E-01    0.724E-02
DAV:   6    -0.538061211147E+02    0.19925E-04   -0.54295E-04  3369   0.413E-01    0.347E-02
DAV:   7    -0.538061052583E+02    0.15856E-04   -0.16429E-04  3339   0.267E-01    0.128E-02
DAV:   8    -0.538061069937E+02   -0.17354E-05   -0.31895E-05  3027   0.744E-02    0.910E-03
DAV:   9    -0.538061082411E+02   -0.12475E-05   -0.79105E-06  2123   0.544E-02    0.571E-03
DAV:  10    -0.538061095708E+02   -0.13296E-05   -0.27529E-06  1891   0.352E-02    0.255E-03
DAV:  11    -0.538061110293E+02   -0.14585E-05   -0.12466E-06  1477   0.154E-02    0.159E-03
DAV:  12    -0.538061116721E+02   -0.64282E-06   -0.68004E-07  1449   0.108E-02
  63 F= -.53806112E+02 E0= -.53779845E+02  d E =-.171576E-02
       N       E                     dE             d eps       ncg     rms          rms(c)
DAV:   1    -0.538062309728E+02   -0.11994E-03   -0.28345E-01  2220   0.151E+00    0.565E-02
DAV:   2    -0.538068377474E+02   -0.60677E-03   -0.62599E-03  3268   0.408E-01    0.451E-02
DAV:   3    -0.538068468892E+02   -0.91419E-05   -0.54257E-04  2749   0.249E-01    0.403E-02
DAV:   4    -0.538068331205E+02    0.13769E-04   -0.56203E-04  2911   0.287E-01    0.322E-02
DAV:   5    -0.538068185629E+02    0.14558E-04   -0.13606E-04  2903   0.187E-01    0.195E-02
DAV:   6    -0.538068168431E+02    0.17198E-05   -0.30936E-05  3601   0.968E-02    0.596E-03
DAV:   7    -0.538068170859E+02   -0.24284E-06   -0.79409E-06  2475   0.484E-02
  64 F= -.53806817E+02 E0= -.53780544E+02  d E =-.705414E-03
       N       E                     dE             d eps       ncg     rms          rms(c)
DAV:   1    -0.538027729953E+02    0.40438E-02   -0.25529E+00  2220   0.454E+00    0.167E-01
DAV:   2    -0.538082311561E+02   -0.54582E-02   -0.56138E-02  3256   0.121E+00    0.133E-01
DAV:   3    -0.538084798653E+02   -0.24871E-03   -0.71246E-03  2937   0.101E+00    0.139E-01
DAV:   4    -0.538081301033E+02    0.34976E-03   -0.56179E-03  3017   0.899E-01    0.857E-02
DAV:   5    -0.538080479732E+02    0.82130E-04   -0.95814E-04  3469   0.457E-01    0.497E-02
DAV:   6    -0.538080228299E+02    0.25143E-04   -0.27577E-04  3160   0.349E-01    0.123E-02
DAV:   7    -0.538080255211E+02   -0.26911E-05   -0.48465E-05  3300   0.787E-02    0.896E-03
DAV:   8    -0.538080257465E+02   -0.22544E-06   -0.90034E-06  2216   0.525E-02
  65 F= -.53808026E+02 E0= -.53781734E+02  d E =-.191407E-02
       N       E                     dE             d eps       ncg     rms          rms(c)
DAV:   1    -0.538070119181E+02    0.10136E-02   -0.54750E-01  2220   0.210E+00    0.791E-02
DAV:   2    -0.538081941078E+02   -0.11822E-02   -0.12185E-02  3270   0.597E-01    0.652E-02
DAV:   3    -0.538082122226E+02   -0.18115E-04   -0.12096E-03  2871   0.419E-01    0.588E-02
DAV:   4    -0.538081790872E+02    0.33135E-04   -0.11649E-03  2866   0.422E-01    0.448E-02
DAV:   5    -0.538081494295E+02    0.29658E-04   -0.28768E-04  3007   0.268E-01    0.287E-02
DAV:   6    -0.538081440750E+02    0.53545E-05   -0.75603E-05  3360   0.140E-01    0.841E-03
DAV:   7    -0.538081444107E+02   -0.33574E-06   -0.17592E-05  2877   0.548E-02    0.475E-03
DAV:   8    -0.538081447413E+02   -0.33053E-06   -0.26211E-06  1721   0.247E-02
  66 F= -.53808145E+02 E0= -.53781847E+02  d E =-.203307E-02
       N       E                     dE             d eps       ncg     rms          rms(c)
DAV:   1    -0.538074574086E+02    0.68700E-03   -0.74235E-01  2220   0.245E+00    0.885E-02
DAV:   2    -0.538090450497E+02   -0.15876E-02   -0.16287E-02  3258   0.671E-01    0.763E-02
DAV:   3    -0.538091049043E+02   -0.59855E-04   -0.17919E-03  2781   0.555E-01    0.738E-02
DAV:   4    -0.538090244026E+02    0.80502E-04   -0.14481E-03  3025   0.458E-01    0.494E-02
DAV:   5    -0.538090157821E+02    0.86205E-05   -0.49000E-04  3378   0.296E-01    0.358E-02
DAV:   6    -0.538089959767E+02    0.19805E-04   -0.12886E-04  3354   0.232E-01    0.885E-03
DAV:   7    -0.538089964192E+02   -0.44249E-06   -0.28519E-05  3194   0.590E-02    0.600E-03
DAV:   8    -0.538089965547E+02   -0.13548E-06   -0.37289E-06  1980   0.279E-02
  67 F= -.53808997E+02 E0= -.53782694E+02  d E =-.851813E-03
       N       E                     dE             d eps       ncg     rms          rms(c)
DAV:   1    -0.537987445156E+02    0.10252E-01   -0.53314E+00  2220   0.657E+00    0.243E-01
DAV:   2    -0.538104846119E+02   -0.11740E-01   -0.12106E-01  3292   0.178E+00    0.211E-01
DAV:   3    -0.538103131902E+02    0.17142E-03   -0.53203E-03  2692   0.755E-01    0.157E-01
DAV:   4    -0.538104883989E+02   -0.17521E-03   -0.79699E-03  3036   0.106E+00    0.155E-01
DAV:   5    -0.538101004662E+02    0.38793E-03   -0.54943E-03  3007   0.969E-01    0.983E-02
DAV:   6    -0.538100247717E+02    0.75695E-04   -0.12247E-03  3569   0.584E-01    0.467E-02
DAV:   7    -0.538099977767E+02    0.26995E-04   -0.29200E-04  3231   0.348E-01    0.176E-02
DAV:   8    -0.538099991374E+02   -0.13607E-05   -0.55079E-05  3384   0.836E-02    0.108E-02
DAV:   9    -0.538099996535E+02   -0.51613E-06   -0.11049E-05  2213   0.614E-02    0.740E-03
DAV:  10    -0.538099999657E+02   -0.31217E-06   -0.45689E-06  2153   0.464E-02
  68 F= -.53810000E+02 E0= -.53783703E+02  d E =-.185522E-02
[...]
DAV:   5    -0.538304220807E+02    0.65478E-06   -0.13142E-05  1703   0.459E-02    0.336E-03
DAV:   6    -0.538304220474E+02    0.33324E-07   -0.25157E-06  1537   0.293E-02
 127 F= -.53830422E+02 E0= -.53804629E+02  d E =-.154150E-03
       N       E                     dE             d eps       ncg     rms          rms(c)
DAV:   1    -0.538304846876E+02   -0.62607E-04   -0.50145E-02  2220   0.673E-01    0.233E-02
DAV:   2    -0.538305850876E+02   -0.10040E-03   -0.10984E-03  3377   0.217E-01    0.288E-02
DAV:   3    -0.538305788359E+02    0.62516E-05   -0.27067E-04  3034   0.189E-01    0.214E-02
DAV:   4    -0.538305723429E+02    0.64930E-05   -0.10338E-04  2614   0.142E-01    0.138E-02
DAV:   5    -0.538305700354E+02    0.23075E-05   -0.14970E-05  2333   0.601E-02    0.716E-03
DAV:   6    -0.538305697623E+02    0.27317E-06   -0.80306E-06  2722   0.479E-02
 128 F= -.53830570E+02 E0= -.53804786E+02  d E =-.301865E-03
       N       E                     dE             d eps       ncg     rms          rms(c)
DAV:   1    -0.538302259090E+02    0.34413E-03   -0.20020E-01  2220   0.134E+00    0.466E-02
DAV:   2    -0.538306293188E+02   -0.40341E-03   -0.44021E-03  3369   0.434E-01    0.599E-02
DAV:   3    -0.538305970562E+02    0.32263E-04   -0.11240E-03  2971   0.388E-01    0.427E-02
DAV:   4    -0.538305737952E+02    0.23261E-04   -0.40497E-04  2811   0.286E-01    0.281E-02
DAV:   5    -0.538305641479E+02    0.96473E-05   -0.70131E-05  3400   0.132E-01    0.153E-02
DAV:   6    -0.538305621300E+02    0.20180E-05   -0.29454E-05  3107   0.112E-01    0.891E-03
DAV:   7    -0.538305617751E+02    0.35489E-06   -0.10955E-05  2272   0.695E-02    0.266E-03
DAV:   8    -0.538305623578E+02   -0.58269E-06   -0.17454E-06  1418   0.201E-02
 129 F= -.53830562E+02 E0= -.53804805E+02  d E =-.294460E-03
       N       E                     dE             d eps       ncg     rms          rms(c)
DAV:   1    -0.538305153683E+02    0.46407E-04   -0.60009E-02  2227   0.736E-01    0.254E-02
DAV:   2    -0.538306384025E+02   -0.12303E-03   -0.13374E-03  3391   0.258E-01    0.338E-02
DAV:   3    -0.538306274099E+02    0.10993E-04   -0.37238E-04  2985   0.232E-01    0.227E-02
DAV:   4    -0.538306198687E+02    0.75412E-05   -0.10350E-04  2637   0.138E-01    0.152E-02
DAV:   5    -0.538306182782E+02    0.15905E-05   -0.16609E-05  2663   0.648E-02    0.758E-03
DAV:   6    -0.538306186664E+02   -0.38822E-06   -0.10572E-05  2665   0.573E-02    0.405E-03
DAV:   7    -0.538306186158E+02    0.50582E-07   -0.26747E-06  1582   0.334E-02
 130 F= -.53830619E+02 E0= -.53804849E+02  d E =-.350718E-03
       N       E                     dE             d eps       ncg     rms          rms(c)
DAV:   1    -0.538306397051E+02   -0.21039E-04   -0.29494E-04  2360   0.521E-02    0.170E-03
DAV:   2    -0.538306404672E+02   -0.76203E-06   -0.76081E-06  2836   0.184E-02
 131 F= -.53830640E+02 E0= -.53804869E+02  d E =-.218514E-04
       N       E                     dE             d eps       ncg     rms          rms(c)
DAV:   1    -0.538306987658E+02   -0.59061E-04   -0.26779E-03  2304   0.153E-01    0.418E-03
DAV:   2    -0.538307052049E+02   -0.64390E-05   -0.70723E-05  3411   0.533E-02    0.712E-03
DAV:   3    -0.538307040425E+02    0.11624E-05   -0.23636E-05  2153   0.571E-02    0.468E-03
DAV:   4    -0.538307038352E+02    0.20725E-06   -0.16112E-06  1313   0.219E-02
 132 F= -.53830704E+02 E0= -.53804933E+02  d E =-.852194E-04
       N       E                     dE             d eps       ncg     rms          rms(c)
DAV:   1    -0.538308027069E+02   -0.98664E-04   -0.10685E-02  2262   0.303E-01    0.737E-03
DAV:   2    -0.538308209902E+02   -0.18283E-04   -0.19066E-04  3295   0.988E-02    0.938E-03
DAV:   3    -0.538308208383E+02    0.15192E-06   -0.29599E-05  2371   0.729E-02    0.704E-03
DAV:   4    -0.538308202116E+02    0.62666E-06   -0.71131E-06  1308   0.349E-02
 133 F= -.53830820E+02 E0= -.53805046E+02  d E =-.201596E-03
       N       E                     dE             d eps       ncg     rms          rms(c)
DAV:   1    -0.538309283189E+02   -0.10748E-03   -0.42707E-02  2255   0.607E-01    0.158E-02
DAV:   2    -0.538310118359E+02   -0.83517E-04   -0.88099E-04  3305   0.224E-01    0.247E-02
DAV:   3    -0.538310054496E+02    0.63863E-05   -0.20042E-04  2759   0.182E-01    0.155E-02
DAV:   4    -0.538310027091E+02    0.27405E-05   -0.31505E-05  2240   0.803E-02    0.936E-03
DAV:   5    -0.538310026264E+02    0.82684E-07   -0.76097E-06  1879   0.417E-02
 134 F= -.53831003E+02 E0= -.53805231E+02  d E =-.384011E-03
       N       E                     dE             d eps       ncg     rms          rms(c)
DAV:   1    -0.538309039349E+02    0.98774E-04   -0.17076E-01  2255   0.121E+00    0.281E-02
DAV:   2    -0.538312058763E+02   -0.30194E-03   -0.31289E-03  3289   0.427E-01    0.395E-02
DAV:   3    -0.538311994559E+02    0.64204E-05   -0.52253E-04  2638   0.314E-01    0.249E-02
DAV:   4    -0.538311904726E+02    0.89833E-05   -0.12243E-04  2881   0.128E-01    0.163E-02
DAV:   5    -0.538311902365E+02    0.23609E-06   -0.30902E-05  2621   0.779E-02    0.136E-02
DAV:   6    -0.538311890179E+02    0.12185E-05   -0.17400E-05  3178   0.741E-02    0.460E-03
DAV:   7    -0.538311885673E+02    0.45059E-06   -0.65444E-06  1669   0.309E-02
 135 F= -.53831189E+02 E0= -.53805405E+02  d E =-.569952E-03
       N       E                     dE             d eps       ncg     rms          rms(c)
DAV:   1    -0.538312450435E+02   -0.56026E-04   -0.40194E-03  2262   0.189E-01    0.115E-02
DAV:   2    -0.538312551860E+02   -0.10142E-04   -0.11338E-04  3297   0.649E-02    0.913E-03
DAV:   3    -0.538312559815E+02   -0.79547E-06   -0.39080E-05  2101   0.659E-02    0.839E-03
DAV:   4    -0.538312547136E+02    0.12679E-05   -0.40548E-05  2111   0.811E-02    0.673E-03
DAV:   5    -0.538312536435E+02    0.10701E-05   -0.51297E-06  1520   0.372E-02    0.195E-03
DAV:   6    -0.538312536268E+02    0.16647E-07   -0.10655E-06  1529   0.131E-02
 136 F= -.53831254E+02 E0= -.53805466E+02  d E =-.650595E-04
       N       E                     dE             d eps       ncg     rms          rms(c)
DAV:   1    -0.538312820982E+02   -0.28455E-04   -0.15290E-02  2241   0.366E-01    0.220E-02
DAV:   2    -0.538313182000E+02   -0.36102E-04   -0.42377E-04  3297   0.148E-01    0.202E-02
DAV:   3    -0.538313197233E+02   -0.15233E-05   -0.22179E-04  3067   0.169E-01    0.184E-02
DAV:   4    -0.538313120733E+02    0.76500E-05   -0.13819E-04  2525   0.156E-01    0.112E-02
DAV:   5    -0.538313090155E+02    0.30578E-05   -0.12797E-05  2195   0.611E-02    0.362E-03
DAV:   6    -0.538313087981E+02    0.21741E-06   -0.31482E-06  1944   0.283E-02
 137 F= -.53831309E+02 E0= -.53805512E+02  d E =-.120231E-03
       N       E                     dE             d eps       ncg     rms          rms(c)
DAV:   1    -0.538313242560E+02   -0.15240E-04   -0.96378E-04  2311   0.945E-02    0.331E-03
DAV:   2    -0.538313268585E+02   -0.26026E-05   -0.25989E-05  3313   0.334E-02    0.338E-03
DAV:   3    -0.538313268265E+02    0.32072E-07   -0.35183E-06  1306   0.289E-02
 138 F= -.53831327E+02 E0= -.53805530E+02  d E =-.180283E-04
       N       E                     dE             d eps       ncg     rms          rms(c)
DAV:   1    -0.538313634917E+02   -0.36633E-04   -0.86801E-03  2234   0.274E-01    0.874E-03
DAV:   2    -0.538313816347E+02   -0.18143E-04   -0.19253E-04  3223   0.726E-02    0.864E-03
DAV:   3    -0.538313819559E+02   -0.32119E-06   -0.47280E-05  2314   0.736E-02    0.954E-03
DAV:   4    -0.538313801837E+02    0.17721E-05   -0.12608E-05  1491   0.518E-02    0.464E-03
DAV:   5    -0.538313802048E+02   -0.21042E-07   -0.83202E-07  1323   0.146E-02
 139 F= -.53831380E+02 E0= -.53805588E+02  d E =-.714066E-04
       N       E                     dE             d eps       ncg     rms          rms(c)
DAV:   1    -0.538314203279E+02   -0.40144E-04   -0.34668E-02  2220   0.545E-01    0.164E-02
DAV:   2    -0.538314878989E+02   -0.67571E-04   -0.69510E-04  3292   0.175E-01    0.175E-02
DAV:   3    -0.538314890010E+02   -0.11021E-05   -0.10558E-04  2626   0.147E-01    0.139E-02
DAV:   4    -0.538314852770E+02    0.37240E-05   -0.54080E-05  1894   0.850E-02    0.857E-03
DAV:   5    -0.538314849447E+02    0.33231E-06   -0.13631E-05  1744   0.457E-02    0.683E-03
DAV:   6    -0.538314846131E+02    0.33161E-06   -0.50430E-06  2387   0.329E-02
 140 F= -.53831485E+02 E0= -.53805699E+02  d E =-.175815E-03
       N       E                     dE             d eps       ncg     rms          rms(c)
DAV:   1    -0.538314207659E+02    0.64179E-04   -0.13877E-01  2227   0.109E+00    0.317E-02
DAV:   2    -0.538316772107E+02   -0.25644E-03   -0.26301E-03  3241   0.294E-01    0.261E-02
DAV:   3    -0.538316897945E+02   -0.12584E-04   -0.35988E-04  2815   0.232E-01    0.296E-02
DAV:   4    -0.538316709678E+02    0.18827E-04   -0.19952E-04  2648   0.175E-01    0.152E-02
DAV:   5    -0.538316706460E+02    0.32183E-06   -0.32143E-05  3044   0.876E-02    0.113E-02
DAV:   6    -0.538316691261E+02    0.15199E-05   -0.13268E-05  2688   0.729E-02    0.299E-03
DAV:   7    -0.538316690824E+02    0.43627E-07   -0.23425E-06  1417   0.237E-02
 141 F= -.53831669E+02 E0= -.53805887E+02  d E =-.360284E-03
       N       E                     dE             d eps       ncg     rms          rms(c)
DAV:   1    -0.538308573940E+02    0.81173E-03   -0.55488E-01  2234   0.218E+00    0.646E-02
DAV:   2    -0.538318900641E+02   -0.10327E-02   -0.10619E-02  3250   0.603E-01    0.543E-02
DAV:   3    -0.538319116527E+02   -0.21589E-04   -0.10809E-03  2821   0.395E-01    0.535E-02
DAV:   4    -0.538318660366E+02    0.45616E-04   -0.72624E-04  2799   0.339E-01    0.336E-02
DAV:   5    -0.538318572566E+02    0.87800E-05   -0.14975E-04  3264   0.194E-01    0.244E-02
DAV:   6    -0.538318527062E+02    0.45504E-05   -0.58753E-05  3352   0.123E-01    0.946E-03
DAV:   7    -0.538318520290E+02    0.67722E-06   -0.12698E-05  2802   0.677E-02    0.398E-03
DAV:   8    -0.538318520798E+02   -0.50844E-07   -0.24170E-06  1537   0.255E-02
 142 F= -.53831852E+02 E0= -.53806085E+02  d E =-.543282E-03
       N       E                     dE             d eps       ncg     rms          rms(c)
DAV:   1    -0.538318529008E+02   -0.87181E-06   -0.36305E-02  2220   0.568E-01    0.290E-02
DAV:   2    -0.538319389687E+02   -0.86068E-04   -0.10184E-03  3244   0.172E-01    0.339E-02
DAV:   3    -0.538319285111E+02    0.10458E-04   -0.48531E-04  2980   0.239E-01    0.271E-02
DAV:   4    -0.538319157530E+02    0.12758E-04   -0.13842E-04  2619   0.178E-01    0.152E-02
DAV:   5    -0.538319125643E+02    0.31887E-05   -0.19349E-05  2821   0.669E-02    0.630E-03
DAV:   6    -0.538319123809E+02    0.18347E-06   -0.79395E-06  2410   0.654E-02
 143 F= -.53831912E+02 E0= -.53806165E+02  d E =-.603010E-04
       N       E                     dE             d eps       ncg     rms          rms(c)
DAV:   1    -0.538319131540E+02   -0.58967E-06   -0.90860E-04  2536   0.102E-01    0.452E-03
DAV:   2    -0.538319156967E+02   -0.25427E-05   -0.24717E-05  3183   0.244E-02    0.421E-03
DAV:   3    -0.538319156186E+02    0.78027E-07   -0.11945E-06  1448   0.165E-02
 144 F= -.53831916E+02 E0= -.53806167E+02  d E =-.635388E-04
       N       E                     dE             d eps       ncg     rms          rms(c)
DAV:   1    -0.538319613326E+02   -0.45636E-04   -0.14359E-02  2241   0.362E-01    0.118E-02
DAV:   2    -0.538319894595E+02   -0.28127E-04   -0.29478E-04  3157   0.898E-02    0.126E-02
DAV:   3    -0.538319893395E+02    0.12000E-06   -0.97495E-05  2501   0.111E-01    0.125E-02
DAV:   4    -0.538319863632E+02    0.29763E-05   -0.25777E-05  1993   0.738E-02    0.557E-03
DAV:   5    -0.538319863328E+02    0.30443E-07   -0.16763E-06  1416   0.252E-02
 145 F= -.53831986E+02 E0= -.53806248E+02  d E =-.707141E-04
       N       E                     dE             d eps       ncg     rms          rms(c)
DAV:   1    -0.538319469136E+02    0.39450E-04   -0.12935E-01  2241   0.108E+00    0.345E-02
DAV:   2    -0.538321627663E+02   -0.21585E-03   -0.22372E-03  3269   0.268E-01    0.291E-02
DAV:   3    -0.538321587218E+02    0.40445E-05   -0.78119E-05  2747   0.168E-01    0.206E-02
DAV:   4    -0.538321572098E+02    0.15120E-05   -0.34689E-05  2478   0.118E-01    0.163E-02
DAV:   5    -0.538321691189E+02   -0.11909E-04   -0.19631E-04  2420   0.158E-01    0.216E-02
DAV:   6    -0.538321538930E+02    0.15226E-04   -0.14932E-04  2742   0.143E-01    0.468E-03
DAV:   7    -0.538321538517E+02    0.41269E-07   -0.74262E-06  2616   0.340E-02
 146 F= -.53832154E+02 E0= -.53806437E+02  d E =-.238233E-03
       N       E                     dE             d eps       ncg     rms          rms(c)
DAV:   1    -0.538314366528E+02    0.71724E-03   -0.51780E-01  2234   0.217E+00    0.708E-02
DAV:   2    -0.538323249257E+02   -0.88827E-03   -0.92493E-03  3285   0.580E-01    0.655E-02
DAV:   3    -0.538322985126E+02    0.26413E-04   -0.44169E-04  2664   0.381E-01    0.420E-02
DAV:   4    -0.538323104337E+02   -0.11921E-04   -0.46745E-04  2933   0.300E-01    0.404E-02
DAV:   5    -0.538322946274E+02    0.15806E-04   -0.62795E-04  3607   0.260E-01    0.282E-02
DAV:   6    -0.538322770057E+02    0.17622E-04   -0.17211E-04  4038   0.130E-01    0.903E-03
DAV:   7    -0.538322766274E+02    0.37832E-06   -0.15298E-05  3185   0.751E-02    0.474E-03
DAV:   8    -0.538322764503E+02    0.17710E-06   -0.40981E-06  1824   0.296E-02
 147 F= -.53832276E+02 E0= -.53806602E+02  d E =-.360832E-03
       N       E                     dE             d eps       ncg     rms          rms(c)
DAV:   1    -0.538322987589E+02   -0.22132E-04   -0.11170E-02  2220   0.297E-01    0.131E-02
DAV:   2    -0.538323265988E+02   -0.27840E-04   -0.30034E-04  3264   0.101E-01    0.136E-02
DAV:   3    -0.538323263320E+02    0.26682E-06   -0.10364E-04  2569   0.116E-01    0.130E-02
DAV:   4    -0.538323229658E+02    0.33661E-05   -0.29392E-05  2101   0.768E-02    0.645E-03
DAV:   5    -0.538323224142E+02    0.55163E-06   -0.19448E-06  1620   0.266E-02
 148 F= -.53832322E+02 E0= -.53806651E+02  d E =-.459639E-04
       N       E                     dE             d eps       ncg     rms          rms(c)
DAV:   1    -0.538322948905E+02    0.28075E-04   -0.18652E-02  2220   0.385E-01    0.164E-02
DAV:   2    -0.538323439484E+02   -0.49058E-04   -0.52473E-04  3287   0.154E-01    0.206E-02
DAV:   3    -0.538323388318E+02    0.51166E-05   -0.16153E-04  3001   0.152E-01    0.140E-02
DAV:   4    -0.538323356286E+02    0.32032E-05   -0.35202E-05  2179   0.804E-02    0.837E-03
DAV:   5    -0.538323350315E+02    0.59715E-06   -0.75575E-06  2120   0.566E-02
 149 F= -.53832335E+02 E0= -.53806660E+02  d E =-.585812E-04
       N       E                     dE             d eps       ncg     rms          rms(c)
DAV:   1    -0.538323455585E+02   -0.99299E-05   -0.54188E-04  2737   0.861E-02    0.339E-03
DAV:   2    -0.538323474404E+02   -0.18819E-05   -0.17679E-05  2756   0.452E-02    0.452E-03
DAV:   3    -0.538323471762E+02    0.26420E-06   -0.89699E-06  1459   0.408E-02
 150 F= -.53832347E+02 E0= -.53806674E+02  d E =-.121447E-04
       N       E                     dE             d eps       ncg     rms          rms(c)
DAV:   1    -0.538323721445E+02   -0.24704E-04   -0.48258E-03  2227   0.196E-01    0.718E-03
DAV:   2    -0.538323835670E+02   -0.11422E-04   -0.11658E-04  3307   0.627E-02    0.638E-03
DAV:   3    -0.538323833802E+02    0.18685E-06   -0.36594E-06  1867   0.233E-02
 151 F= -.53832383E+02 E0= -.53806718E+02  d E =-.483487E-04
       N       E                     dE             d eps       ncg     rms          rms(c)
DAV:   1    -0.538324068204E+02   -0.23253E-04   -0.19318E-02  2220   0.390E-01    0.143E-02
DAV:   2    -0.538324513746E+02   -0.44554E-04   -0.46525E-04  3225   0.138E-01    0.159E-02
DAV:   3    -0.538324501622E+02    0.12124E-05   -0.14014E-04  2649   0.144E-01    0.145E-02
DAV:   4    -0.538324467118E+02    0.34504E-05   -0.26300E-05  2043   0.723E-02    0.698E-03
DAV:   5    -0.538324468848E+02   -0.17302E-06   -0.42870E-06  2043   0.394E-02
 152 F= -.53832447E+02 E0= -.53806783E+02  d E =-.111853E-03
       N       E                     dE             d eps       ncg     rms          rms(c)
DAV:   1    -0.538323813191E+02    0.65393E-04   -0.77124E-02  2220   0.779E-01    0.264E-02
DAV:   2    -0.538325490451E+02   -0.16773E-03   -0.17093E-03  3313   0.246E-01    0.227E-02
DAV:   3    -0.538325467176E+02    0.23275E-05   -0.47434E-05  2907   0.125E-01    0.150E-02
DAV:   4    -0.538325485925E+02   -0.18749E-05   -0.58615E-05  2433   0.106E-01    0.156E-02
DAV:   5    -0.538325468742E+02    0.17183E-05   -0.84203E-05  2083   0.115E-01    0.118E-02
DAV:   6    -0.538325442919E+02    0.25823E-05   -0.30199E-05  2363   0.725E-02    0.298E-03
DAV:   7    -0.538325442799E+02    0.12078E-07   -0.47298E-06  1878   0.229E-02
 153 F= -.53832544E+02 E0= -.53806894E+02  d E =-.209248E-03
       N       E                     dE             d eps       ncg     rms          rms(c)
DAV:   1    -0.538320352338E+02    0.50906E-03   -0.30874E-01  2220   0.155E+00    0.512E-02
DAV:   2    -0.538326638201E+02   -0.62859E-03   -0.63974E-03  3285   0.443E-01    0.375E-02
DAV:   3    -0.538326595571E+02    0.42630E-05   -0.11327E-04  2994   0.125E-01    0.262E-02
DAV:   4    -0.538326674496E+02   -0.78926E-05   -0.15909E-04  2847   0.162E-01    0.262E-02
DAV:   5    -0.538326701620E+02   -0.27124E-05   -0.40831E-04  2788   0.248E-01    0.265E-02
DAV:   6    -0.538326525881E+02    0.17574E-04   -0.12134E-04  3136   0.157E-01    0.565E-03
DAV:   7    -0.538326528347E+02   -0.24663E-06   -0.77898E-06  2733   0.331E-02
 154 F= -.53832653E+02 E0= -.53807024E+02  d E =-.317803E-03
       N       E                     dE             d eps       ncg     rms          rms(c)
DAV:   1    -0.538300667902E+02    0.25858E-02   -0.12348E+00  2220   0.311E+00    0.104E-01
DAV:   2    -0.538325973265E+02   -0.25305E-02   -0.25805E-02  3271   0.930E-01    0.815E-02
DAV:   3    -0.538325790956E+02    0.18231E-04   -0.65016E-04  2895   0.425E-01    0.578E-02
DAV:   4    -0.538325885756E+02   -0.94800E-05   -0.55273E-04  2877   0.407E-01    0.505E-02
DAV:   5    -0.538326425153E+02   -0.53940E-04   -0.17293E-03  3262   0.464E-01    0.568E-02
DAV:   6    -0.538325438052E+02    0.98710E-04   -0.78000E-04  4095   0.304E-01    0.117E-02
DAV:   7    -0.538325447847E+02   -0.97943E-06   -0.33848E-05  3432   0.830E-02    0.677E-03
DAV:   8    -0.538325447546E+02    0.30064E-07   -0.64604E-06  2056   0.337E-02
 155 F= -.53832545E+02 E0= -.53806960E+02  d E =-.209723E-03
       N       E                     dE             d eps       ncg     rms          rms(c)
DAV:   1    -0.538321850614E+02    0.35972E-03   -0.22859E-01  2220   0.134E+00    0.437E-02
DAV:   2    -0.538326522020E+02   -0.46714E-03   -0.47838E-03  3300   0.419E-01    0.364E-02
DAV:   3    -0.538326466578E+02    0.55442E-05   -0.12041E-04  2896   0.203E-01    0.246E-02
DAV:   4    -0.538326431193E+02    0.35385E-05   -0.26149E-05  2842   0.128E-01    0.182E-02
DAV:   5    -0.538326406131E+02    0.25062E-05   -0.21598E-05  3572   0.751E-02    0.695E-03
DAV:   6    -0.538326402391E+02    0.37401E-06   -0.67715E-06  2196   0.554E-02
 156 F= -.53832640E+02 E0= -.53807042E+02  d E =-.305208E-03
       N       E                     dE             d eps       ncg     rms          rms(c)
DAV:   1    -0.538326000203E+02    0.40593E-04   -0.31369E-02  2220   0.513E-01    0.188E-02
DAV:   2    -0.538326746071E+02   -0.74587E-04   -0.79412E-04  3266   0.171E-01    0.232E-02
DAV:   3    -0.538326706061E+02    0.40010E-05   -0.25834E-04  2868   0.190E-01    0.191E-02
DAV:   4    -0.538326645846E+02    0.60216E-05   -0.52740E-05  2357   0.107E-01    0.987E-03
DAV:   5    -0.538326641461E+02    0.43851E-06   -0.69112E-06  2090   0.492E-02
 157 F= -.53832664E+02 E0= -.53807065E+02  d E =-.239070E-04
