PROCAR lm decomposed
# of k-points:   10         # of bands:  111         # of ions:   18

 k-point     1 :    0.00000000 0.00000000 0.00000000     weight = 0.06250000

band     1 # energy  -24.22067176 # occ.  2.00000000
 
ion      s     py     pz     px    dxy    dyz    dz2    dxz  x2-y2    tot
    1  0.000  0.000  0.000  0.000  0.000  0.000  0.000  0.000  0.000  0.000
    2  0.000  0.000  0.000  0.000  0.000  0.000  0.000  0.000  0.000  0.000
    3  0.000  0.000  0.000  0.000  0.000  0.000  0.000  0.000  0.000  0.000
    4  0.000  0.000  0.000  0.000  0.000  0.000  0.000  0.000  0.000  0.000
    5  0.000  0.000  0.000  0.000  0.000  0.000  0.000  0.000  0.000  0.000
    6  0.000  0.000  0.000  0.000  0.000  0.000  0.000  0.000  0.000  0.000
    7  0.000  0.000  0.000  0.000  0.000  0.000  0.000  0.000  0.000  0.000
    8  0.000  0.000  0.000  0.000  0.000  0.000  0.000  0.000  0.000  0.000
    9  0.000  0.000  0.000  0.000  0.000  0.000  0.000  0.000  0.000  0.000
   10  0.000  0.000  0.000  0.000  0.000  0.000  0.000  0.000  0.000  0.000
   11  0.000  0.000  0.000  0.000  0.000  0.000  0.000  0.000  0.000  0.000
   12  0.000  0.000  0.000  0.000  0.000  0.000  0.000  0.000  0.000  0.000
   13  0.000  0.000  0.000  0.000  0.000  0.000  0.000  0.000  0.000  0.000
   14  0.000  0.000  0.000  0.000  0.000  0.000  0.000  0.000  0.000  0.000
   15  0.000  0.000  0.000  0.000  0.000  0.000  0.000  0.000  0.000  0.000
   16  0.000  0.000  0.000  0.000  0.000  0.000  0.000  0.000  0.000  0.000
   17  0.155  0.000  0.106  0.000  0.000  0.000  0.000  0.000  0.000  0.261
   18  0.641  0.000  0.088  0.000  0.000  0.000  0.000  0.000  0.000  0.729
tot    0.796  0.000  0.194  0.000  0.000  0.000  0.000  0.000  0.000  0.990
 
band     2 # energy  -10.82042783 # occ.  2.00000000
 
ion      s     py     pz     px    dxy    dyz    dz2    dxz  x2-y2    tot
    1  0.000  0.000  0.000  0.000  0.000  0.000  0.000  0.000  0.000  0.000
    2  0.000  0.000  0.000  0.000  0.000  0.000  0.000  0.000  0.000  0.000
    3  0.000  0.000  0.000  0.000  0.000  0.000  0.000  0.000  0.000  0.000
    4  0.000  0.000  0.000  0.000  0.000  0.000  0.000  0.000  0.000  0.000
    5  0.000  0.000  0.000  0.000  0.000  0.000  0.000  0.000  0.000  0.000
    6  0.000  0.000  0.000  0.000  0.000  0.000  0.000  0.000  0.000  0.000
    7  0.000  0.000  0.000  0.000  0.000  0.000  0.000  0.000  0.000  0.000
    8  0.000  0.000  0.000  0.000  0.000  0.000  0.000  0.000  0.000  0.000
    9  0.001  0.000  0.000  0.000  0.000  0.000  0.000  0.000  0.000  0.001
   10  0.001  0.000  0.000  0.000  0.000  0.000  0.000  0.000  0.000  0.001
   11  0.001  0.000  0.000  0.000  0.000  0.000  0.000  0.000  0.000  0.002
   12  0.001  0.000  0.000  0.000  0.000  0.000  0.000  0.000  0.000  0.001
   13  0.036  0.005  0.006  0.002  0.003  0.009  0.000  0.005  0.000  0.066
   14  0.011  0.000  0.000  0.001  0.003  0.001  0.002  0.002  0.001  0.021
   15  0.036  0.006  0.006  0.001  0.002  0.011  0.000  0.002  0.002  0.066
   16  0.008  0.000  0.000  0.000  0.001  0.000  0.002  0.001  0.000  0.013
   17  0.267  0.000  0.022  0.000  0.000  0.000  0.000  0.000  0.000  0.288
   18  0.112  0.000  0.109  0.000  0.000  0.000  0.000  0.000  0.000  0.221
tot    0.475  0.011  0.143  0.005  0.010  0.020  0.005  0.009  0.004  0.681
 
band     3 # energy   -8.66443095 # occ.  2.00000000
 
ion      s     py     pz     px    dxy    dyz    dz2    dxz  x2-y2    tot
    1  0.017  0.000  0.001  0.000  0.000  0.000  0.000  0.000  0.000  0.018
    2  0.023  0.000  0.002  0.000  0.000  0.000  0.000  0.000  0.000  0.025
    3  0.017  0.000  0.001  0.000  0.000  0.000  0.000  0.000  0.000  0.018
    4  0.022  0.000  0.002  0.000  0.000  0.000  0.000  0.000  0.000  0.024
    5  0.049  0.000  0.000  0.000  0.000  0.000  0.000  0.000  0.000  0.050
    6  0.063  0.000  0.000  0.000  0.000  0.000  0.002  0.000  0.000  0.065
    7  0.048  0.000  0.000  0.000  0.000  0.000  0.000  0.000  0.000  0.048
    8  0.063  0.000  0.000  0.000  0.000  0.000  0.002  0.000  0.000  0.065
    9  0.035  0.000  0.000  0.000  0.000  0.000  0.000  0.000  0.000  0.036
   10  0.044  0.000  0.000  0.000  0.000  0.000  0.000  0.000  0.000  0.045
   11  0.032  0.000  0.000  0.000  0.000  0.000  0.000  0.000  0.000  0.033
   12  0.044  0.000  0.000  0.000  0.000  0.000  0.000  0.000  0.000  0.045
   13  0.011  0.000  0.001  0.000  0.000  0.000  0.000  0.000  0.000  0.012
   14  0.009  0.000  0.001  0.000  0.000  0.000  0.000  0.000  0.000  0.010
   15  0.011  0.000  0.001  0.000  0.000  0.000  0.000  0.000  0.000  0.012
   16  0.009  0.000  0.001  0.000  0.000  0.000  0.000  0.000  0.000  0.010
   17  0.005  0.000  0.010  0.000  0.000  0.000  0.000  0.000  0.000  0.016
   18  0.011  0.000  0.048  0.000  0.000  0.000  0.000  0.000  0.000  0.060
tot    0.514  0.000  0.071  0.000  0.001  0.000  0.005  0.000  0.000  0.591
 
band     4 # energy   -8.12528603 # occ.  2.00000000
 
ion      s     py     pz     px    dxy    dyz    dz2    dxz  x2-y2    tot
    1  0.012  0.000  0.001  0.000  0.000  0.000  0.000  0.000  0.000  0.013
    2  0.015  0.000  0.001  0.000  0.000  0.000  0.001  0.000  0.000  0.017
    3  0.012  0.000  0.001  0.000  0.000  0.000  0.000  0.000  0.000  0.013
    4  0.015  0.000  0.001  0.000  0.000  0.000  0.001  0.000  0.000  0.017
    5  0.016  0.000  0.000  0.000  0.000  0.000  0.000  0.000  0.000  0.017
    6  0.019  0.000  0.001  0.000  0.000  0.000  0.003  0.000  0.000  0.023
    7  0.016  0.000  0.000  0.000  0.000  0.000  0.000  0.000  0.000  0.017
    8  0.019  0.000  0.001  0.000  0.000  0.000  0.003  0.000  0.000  0.023
    9  0.001  0.000  0.002  0.000  0.000  0.000  0.000  0.000  0.000  0.003
   10  0.000  0.000  0.002  0.000  0.000  0.000  0.000  0.000  0.000  0.003
   11  0.002  0.000  0.002  0.000  0.000  0.000  0.000  0.000  0.000  0.004
   12  0.000  0.000  0.002  0.000  0.000  0.000  0.000  0.000  0.000  0.003
   13  0.033  0.001  0.000  0.001  0.003  0.003  0.002  0.002  0.000  0.044
   14  0.017  0.000  0.000  0.000  0.003  0.000  0.009  0.000  0.001  0.031
   15  0.033  0.001  0.000  0.000  0.002  0.004  0.002  0.001  0.001  0.044
   16  0.015  0.000  0.000  0.000  0.001  0.000  0.008  0.000  0.000  0.025
   17  0.002  0.000  0.109  0.000  0.000  0.000  0.000  0.000  0.000  0.112
   18  0.043  0.000  0.279  0.000  0.000  0.000  0.000  0.000  0.000  0.323
tot    0.270  0.003  0.403  0.001  0.008  0.008  0.031  0.004  0.003  0.732
 
band     5 # energy   -7.44921888 # occ.  2.00000000
 
ion      s     py     pz     px    dxy    dyz    dz2    dxz  x2-y2    tot
    1  0.000  0.000  0.000  0.000  0.000  0.000  0.000  0.000  0.000  0.000
    2  0.000  0.000  0.000  0.000  0.000  0.000  0.000  0.000  0.000  0.000
    3  0.000  0.000  0.000  0.000  0.000  0.000  0.000  0.000  0.000  0.000
    4  0.000  0.000  0.000  0.000  0.000  0.000  0.000  0.000  0.000  0.000
    5  0.000  0.000  0.000  0.000  0.000  0.000  0.000  0.000  0.000  0.000
    6  0.000  0.000  0.000  0.000  0.000  0.000  0.000  0.000  0.000  0.000
    7  0.000  0.000  0.000  0.000  0.000  0.000  0.000  0.000  0.000  0.000
    8  0.000  0.000  0.000  0.000  0.000  0.000  0.000  0.000  0.000  0.000
    9  0.000  0.000  0.000  0.000  0.000  0.000  0.000  0.000  0.000  0.001
   10  0.000  0.000  0.000  0.000  0.000  0.000  0.001  0.001  0.000  0.002
   11  0.000  0.000  0.000  0.000  0.000  0.001  0.000  0.000  0.000  0.001
   12  0.000  0.000  0.000  0.000  0.000  0.000  0.001  0.001  0.000  0.002
   13  0.016  0.000  0.003  0.000  0.001  0.004  0.007  0.003  0.001  0.035
   14  0.000  0.000  0.000  0.000  0.010  0.000  0.000  0.000  0.030  0.040
   15  0.016  0.000  0.003  0.000  0.002  0.006  0.007  0.001  0.000  0.035
   16  0.000  0.000  0.000  0.000  0.008  0.000  0.000  0.000  0.025  0.033
   17  0.000  0.132  0.000  0.044  0.000  0.000  0.000  0.000  0.000  0.177
   18  0.000  0.268  0.000  0.089  0.000  0.000  0.000  0.000  0.000  0.358
tot    0.032  0.402  0.007  0.134  0.021  0.012  0.016  0.006  0.056  0.685
 
band     6 # energy   -7.38626993 # occ.  2.00000000
 
ion      s     py     pz     px    dxy    dyz    dz2    dxz  x2-y2    tot
    1  0.000  0.000  0.000  0.000  0.000  0.000  0.000  0.000  0.000  0.000
    2  0.000  0.000  0.000  0.000  0.000  0.000  0.000  0.000  0.000  0.000
    3  0.000  0.000  0.000  0.000  0.000  0.000  0.000  0.000  0.000  0.000
    4  0.000  0.000  0.000  0.000  0.000  0.000  0.000  0.000  0.000  0.000
    5  0.000  0.000  0.000  0.000  0.000  0.000  0.000  0.000  0.000  0.000
    6  0.000  0.000  0.000  0.000  0.000  0.000  0.000  0.000  0.001  0.001
    7  0.000  0.000  0.000  0.000  0.000  0.000  0.000  0.000  0.000  0.000
    8  0.000  0.000  0.000  0.000  0.000  0.000  0.000  0.000  0.001  0.001
    9  0.000  0.000  0.000  0.000  0.000  0.000  0.000  0.000  0.000  0.000
   10  0.000  0.000  0.000  0.000  0.000  0.002  0.000  0.000  0.000  0.003
   11  0.000  0.000  0.000  0.000  0.000  0.000  0.000  0.000  0.000  0.001
   12  0.000  0.000  0.000  0.000  0.000  0.001  0.000  0.001  0.000  0.003
   13  0.000  0.000  0.000  0.001  0.001  0.003  0.000  0.005  0.009  0.020
   14  0.004  0.000  0.000  0.001  0.009  0.006  0.000  0.018  0.003  0.042
   15  0.000  0.000  0.000  0.001  0.004  0.001  0.000  0.007  0.006  0.020
   16  0.003  0.000  0.000  0.001  0.007  0.004  0.000  0.011  0.002  0.030
   17  0.000  0.043  0.000  0.129  0.000  0.000  0.000  0.000  0.000  0.172
   18  0.000  0.094  0.000  0.283  0.000  0.000  0.000  0.000  0.000  0.377
tot    0.009  0.138  0.001  0.416  0.023  0.018  0.001  0.043  0.022  0.671
 
band     7 # energy   -7.36720871 # occ.  2.00000000
 
ion      s     py     pz     px    dxy    dyz    dz2    dxz  x2-y2    tot
    1  0.033  0.000  0.000  0.000  0.001  0.000  0.003  0.000  0.000  0.037
    2  0.040  0.000  0.000  0.000  0.008  0.000  0.062  0.000  0.003  0.113
    3  0.033  0.000  0.000  0.000  0.001  0.000  0.003  0.000  0.000  0.037
    4  0.043  0.000  0.000  0.000  0.008  0.000  0.055  0.000  0.003  0.108
    5  0.001  0.000  0.004  0.000  0.001  0.000  0.000  0.000  0.000  0.007
    6  0.000  0.000  0.005  0.000  0.020  0.000  0.007  0.002  0.005  0.040
    7  0.001  0.000  0.004  0.000  0.001  0.000  0.000  0.000  0.000  0.007
    8  0.000  0.000  0.005  0.000  0.017  0.002  0.007  0.001  0.008  0.040
    9  0.031  0.000  0.000  0.000  0.000  0.000  0.002  0.000  0.000  0.033
   10  0.034  0.000  0.000  0.000  0.005  0.000  0.035  0.000  0.000  0.075
   11  0.025  0.000  0.000  0.000  0.000  0.000  0.003  0.000  0.000  0.028
   12  0.034  0.000  0.000  0.000  0.003  0.000  0.035  0.000  0.003  0.075
   13  0.000  0.001  0.003  0.001  0.002  0.004  0.000  0.001  0.000  0.011
   14  0.001  0.000  0.001  0.000  0.002  0.000  0.005  0.000  0.001  0.011
   15  0.000  0.001  0.003  0.000  0.001  0.003  0.000  0.001  0.001  0.011
   16  0.002  0.000  0.001  0.000  0.001  0.000  0.004  0.001  0.000  0.010
   17  0.002  0.000  0.026  0.000  0.000  0.000  0.000  0.000  0.000  0.028
   18  0.003  0.000  0.038  0.000  0.000  0.000  0.000  0.000  0.000  0.041
tot    0.282  0.002  0.093  0.001  0.071  0.010  0.223  0.008  0.024  0.715
 
band     8 # energy   -7.20769931 # occ.  2.00000000
 
ion      s     py     pz     px    dxy    dyz    dz2    dxz  x2-y2    tot
    1  0.000  0.000  0.000  0.000  0.002  0.000  0.001  0.000  0.001  0.004
    2  0.004  0.000  0.000  0.000  0.036  0.000  0.048  0.000  0.012  0.100
    3  0.000  0.000  0.000  0.000  0.002  0.000  0.001  0.000  0.001  0.004
    4  0.004  0.000  0.000  0.000  0.036  0.000  0.043  0.000  0.012  0.095
    5  0.008  0.000  0.000  0.000  0.002  0.000  0.004  0.000  0.001  0.016
    6  0.013  0.000  0.000  0.000  0.042  0.000  0.138  0.000  0.010  0.204
    7  0.006  0.000  0.000  0.000  0.002  0.000  0.004  0.000  0.001  0.013
    8  0.013  0.000  0.000  0.000  0.035  0.000  0.138  0.000  0.017  0.204
    9  0.019  0.000  0.000  0.000  0.000  0.000  0.006  0.000  0.000  0.025
   10  0.016  0.000  0.001  0.000  0.001  0.000  0.025  0.000  0.000  0.043
   11  0.019  0.000  0.000  0.000  0.000  0.000  0.005  0.000  0.000  0.024
   12  0.016  0.000  0.001  0.000  0.001  0.000  0.025  0.000  0.000  0.043
   13  0.000  0.000  0.002  0.000  0.001  0.002  0.000  0.001  0.000  0.008
   14  0.001  0.000  0.001  0.000  0.002  0.000  0.002  0.000  0.001  0.007
   15  0.000  0.001  0.002  0.000  0.000  0.002  0.000  0.001  0.001  0.008
   16  0.002  0.000  0.001  0.000  0.001  0.000  0.001  0.001  0.000  0.005
   17  0.002  0.000  0.014  0.000  0.000  0.000  0.000  0.000  0.000  0.016
   18  0.001  0.000  0.018  0.000  0.000  0.000  0.000  0.000  0.000  0.019
tot    0.122  0.001  0.042  0.001  0.164  0.005  0.441  0.004  0.055  0.837
 
band     9 # energy   -7.09599077 # occ.  2.00000000
 
ion      s     py     pz     px    dxy    dyz    dz2    dxz  x2-y2    tot
    1  0.000  0.000  0.000  0.000  0.000  0.001  0.000  0.000  0.000  0.002
    2  0.004  0.000  0.002  0.000  0.001  0.000  0.023  0.001  0.000  0.031
    3  0.000  0.000  0.000  0.000  0.000  0.001  0.000  0.000  0.000  0.002
    4  0.002  0.000  0.002  0.000  0.000  0.000  0.031  0.001  0.000  0.036
    5  0.023  0.000  0.000  0.000  0.014  0.000  0.000  0.000  0.005  0.044
    6  0.000  0.000  0.000  0.000  0.063  0.012  0.000  0.006  0.203  0.285
    7  0.026  0.000  0.000  0.000  0.015  0.000  0.000  0.000  0.005  0.047
    8  0.000  0.000  0.000  0.000  0.070  0.015  0.000  0.003  0.196  0.285
    9  0.003  0.000  0.001  0.000  0.000  0.000  0.001  0.001  0.000  0.007
   10  0.000  0.000  0.000  0.000  0.002  0.030  0.000  0.011  0.008  0.051
   11  0.003  0.000  0.000  0.000  0.001  0.000  0.001  0.001  0.000  0.006
   12  0.000  0.000  0.000  0.000  0.003  0.031  0.000  0.009  0.006  0.051
   13  0.000  0.000  0.000  0.000  0.000  0.000  0.000  0.000  0.000  0.000
   14  0.000  0.000  0.000  0.000  0.000  0.000  0.002  0.001  0.000  0.003
   15  0.000  0.000  0.000  0.000  0.000  0.000  0.000  0.000  0.000  0.000
   16  0.000  0.000  0.000  0.000  0.000  0.000  0.002  0.000  0.000  0.003
   17  0.000  0.000  0.000  0.001  0.000  0.000  0.000  0.000  0.000  0.001
   18  0.000  0.001  0.000  0.002  0.000  0.000  0.000  0.000  0.000  0.002
tot    0.062  0.002  0.006  0.003  0.170  0.092  0.061  0.036  0.425  0.857
 
band    10 # energy   -7.02143804 # occ.  2.00000000
 
ion      s     py     pz     px    dxy    dyz    dz2    dxz  x2-y2    tot
    1  0.000  0.000  0.000  0.000  0.000  0.002  0.000  0.001  0.001  0.004
    2  0.005  0.000  0.001  0.001  0.001  0.005  0.006  0.015  0.000  0.033
    3  0.000  0.000  0.000  0.000  0.000  0.002  0.000  0.000  0.001  0.004
    4  0.002  0.000  0.001  0.000  0.002  0.003  0.009  0.009  0.001  0.027
    5  0.002  0.000  0.000  0.000  0.000  0.002  0.000  0.005  0.000  0.010
    6  0.000  0.000  0.000  0.000  0.001  0.150  0.000  0.049  0.013  0.213
    7  0.001  0.000  0.000  0.000  0.001  0.002  0.000  0.006  0.000  0.010
    8  0.000  0.000  0.000  0.000  0.008  0.149  0.000  0.051  0.006  0.213
    9  0.011  0.000  0.000  0.000  0.005  0.001  0.000  0.003  0.002  0.023
   10  0.000  0.000  0.000  0.000  0.019  0.023  0.000  0.011  0.082  0.136
   11  0.014  0.000  0.000  0.000  0.006  0.000  0.000  0.001  0.002  0.025
   12  0.000  0.000  0.000  0.000  0.032  0.027  0.000  0.006  0.070  0.136
   13  0.000  0.001  0.000  0.000  0.000  0.001  0.000  0.001  0.000  0.003
   14  0.000  0.000  0.000  0.000  0.000  0.001  0.002  0.003  0.000  0.006
   15  0.000  0.000  0.000  0.000  0.000  0.002  0.000  0.000  0.000  0.003
   16  0.000  0.000  0.000  0.000  0.000  0.001  0.000  0.003  0.000  0.004
   17  0.000  0.000  0.000  0.000  0.000  0.000  0.000  0.000  0.000  0.000
   18  0.000  0.000  0.000  0.000  0.000  0.000  0.000  0.000  0.000  0.001
tot    0.036  0.003  0.003  0.003  0.076  0.371  0.018  0.164  0.179  0.852
 
band    11 # energy   -6.91668519 # occ.  2.00000000
 
ion      s     py     pz     px    dxy    dyz    dz2    dxz  x2-y2    tot
    1  0.001  0.000  0.000  0.000  0.001  0.001  0.003  0.001  0.000  0.007
    2  0.012  0.000  0.000  0.001  0.014  0.006  0.003  0.019  0.005  0.060
    3  0.001  0.000  0.000  0.000  0.001  0.000  0.003  0.002  0.000  0.007
    4  0.013  0.000  0.000  0.001  0.013  0.007  0.002  0.020  0.004  0.060
    5  0.014  0.000  0.000  0.000  0.007  0.000  0.001  0.000  0.002  0.024
    6  0.006  0.000  0.001  0.000  0.146  0.002  0.010  0.002  0.049  0.215
    7  0.013  0.000  0.000  0.000  0.007  0.000  0.001  0.000  0.002  0.024
    8  0.006  0.000  0.001  0.000  0.146  0.000  0.010  0.003  0.048  0.215
    9  0.000  0.000  0.000  0.000  0.000  0.001  0.000  0.002  0.000  0.003
   10  0.002  0.000  0.000  0.000  0.000  0.002  0.039  0.005  0.000  0.049
   11  0.001  0.000  0.000  0.000  0.000  0.000  0.000  0.001  0.000  0.003
   12  0.002  0.000  0.000  0.000  0.000  0.001  0.039  0.006  0.001  0.050
   13  0.000  0.000  0.000  0.000  0.004  0.001  0.001  0.001  0.001  0.009
   14  0.011  0.000  0.000  0.000  0.028  0.001  0.009  0.002  0.009  0.060
   15  0.000  0.000  0.000  0.000  0.004  0.002  0.001  0.000  0.001  0.009
   16  0.012  0.000  0.000  0.000  0.028  0.000  0.008  0.000  0.009  0.058
   17  0.001  0.000  0.003  0.000  0.000  0.000  0.000  0.000  0.000  0.004
   18  0.000  0.000  0.003  0.000  0.000  0.000  0.000  0.000  0.000  0.004
tot    0.095  0.001  0.011  0.003  0.398  0.024  0.131  0.064  0.134  0.861
 
band    12 # energy   -6.86000257 # occ.  2.00000000
 
ion      s     py     pz     px    dxy    dyz    dz2    dxz  x2-y2    tot
    1  0.017  0.000  0.000  0.000  0.015  0.000  0.003  0.001  0.005  0.042
    2  0.000  0.001  0.000  0.000  0.065  0.034  0.000  0.011  0.195  0.306
    3  0.017  0.000  0.000  0.000  0.015  0.000  0.003  0.001  0.005  0.042
    4  0.000  0.001  0.000  0.000  0.064  0.033  0.000  0.011  0.191  0.300
    5  0.000  0.000  0.000  0.000  0.000  0.001  0.000  0.000  0.000  0.001
    6  0.007  0.000  0.002  0.000  0.000  0.000  0.072  0.001  0.000  0.082
    7  0.000  0.000  0.000  0.000  0.000  0.001  0.000  0.000  0.000  0.001
    8  0.007  0.000  0.002  0.000  0.000  0.000  0.072  0.001  0.000  0.082
    9  0.000  0.000  0.000  0.000  0.000  0.001  0.000  0.000  0.001  0.003
   10  0.001  0.000  0.000  0.000  0.001  0.001  0.000  0.003  0.000  0.006
   11  0.000  0.000  0.000  0.000  0.000  0.001  0.000  0.000  0.001  0.002
   12  0.001  0.000  0.000  0.000  0.001  0.001  0.000  0.003  0.000  0.006
   13  0.000  0.000  0.000  0.000  0.000  0.000  0.000  0.000  0.000  0.000
   14  0.000  0.000  0.000  0.000  0.000  0.000  0.000  0.000  0.000  0.000
   15  0.000  0.000  0.000  0.000  0.000  0.000  0.000  0.000  0.000  0.000
   16  0.000  0.000  0.000  0.000  0.000  0.000  0.000  0.000  0.000  0.000
   17  0.000  0.000  0.000  0.000  0.000  0.000  0.000  0.000  0.000  0.000
   18  0.000  0.000  0.000  0.000  0.000  0.000  0.000  0.000  0.000  0.001
tot    0.050  0.003  0.004  0.002  0.162  0.074  0.151  0.033  0.399  0.877
 
band    13 # energy   -6.79438890 # occ.  2.00000000
 
ion      s     py     pz     px    dxy    dyz    dz2    dxz  x2-y2    tot
    1  0.001  0.000  0.000  0.000  0.000  0.000  0.000  0.000  0.000  0.002
    2  0.000  0.000  0.000  0.000  0.006  0.001  0.001  0.003  0.002  0.015
    3  0.001  0.000  0.000  0.000  0.000  0.000  0.000  0.000  0.000  0.002
    4  0.001  0.000  0.000  0.000  0.005  0.002  0.002  0.005  0.002  0.018
    5  0.002  0.000  0.000  0.000  0.001  0.000  0.001  0.000  0.000  0.005
    6  0.003  0.000  0.000  0.000  0.030  0.004  0.002  0.001  0.007  0.047
    7  0.002  0.000  0.000  0.000  0.001  0.000  0.000  0.001  0.000  0.005
    8  0.003  0.000  0.000  0.000  0.025  0.000  0.002  0.005  0.012  0.047
    9  0.001  0.000  0.000  0.000  0.007  0.000  0.001  0.000  0.002  0.011
   10  0.007  0.000  0.001  0.000  0.121  0.000  0.032  0.000  0.025  0.185
   11  0.002  0.000  0.000  0.000  0.004  0.000  0.000  0.000  0.001  0.008
   12  0.007  0.000  0.001  0.000  0.097  0.000  0.032  0.000  0.049  0.185
   13  0.001  0.000  0.001  0.000  0.009  0.002  0.000  0.001  0.002  0.016
   14  0.015  0.000  0.000  0.000  0.073  0.000  0.044  0.000  0.024  0.156
   15  0.001  0.001  0.001  0.000  0.007  0.002  0.000  0.001  0.004  0.016
   16  0.016  0.000  0.000  0.000  0.061  0.001  0.059  0.002  0.020  0.157
   17  0.002  0.000  0.006  0.000  0.000  0.000  0.000  0.000  0.000  0.008
   18  0.000  0.000  0.006  0.000  0.000  0.000  0.000  0.000  0.000  0.006
tot    0.065  0.001  0.015  0.001  0.447  0.011  0.175  0.020  0.151  0.887
 
band    14 # energy   -6.70023075 # occ.  2.00000000
 
ion      s     py     pz     px    dxy    dyz    dz2    dxz  x2-y2    tot
    1  0.014  0.000  0.000  0.000  0.003  0.001  0.002  0.003  0.001  0.024
    2  0.001  0.000  0.001  0.000  0.099  0.004  0.012  0.012  0.033  0.163
    3  0.014  0.000  0.000  0.000  0.003  0.001  0.002  0.003  0.001  0.024
    4  0.001  0.000  0.001  0.000  0.100  0.005  0.012  0.015  0.033  0.167
    5  0.003  0.000  0.000  0.000  0.000  0.004  0.003  0.011  0.000  0.022
    6  0.001  0.000  0.000  0.000  0.008  0.027  0.016  0.099  0.001  0.152
    7  0.005  0.000  0.000  0.000  0.000  0.003  0.003  0.010  0.000  0.022
    8  0.001  0.000  0.000  0.000  0.005  0.036  0.016  0.090  0.004  0.152
    9  0.000  0.000  0.001  0.000  0.001  0.001  0.001  0.002  0.000  0.005
   10  0.003  0.000  0.000  0.000  0.004  0.008  0.000  0.018  0.001  0.034
   11  0.000  0.000  0.000  0.000  0.000  0.001  0.001  0.002  0.000  0.005
   12  0.003  0.000  0.000  0.000  0.003  0.005  0.000  0.020  0.002  0.034
   13  0.000  0.000  0.000  0.000  0.001  0.000  0.000  0.002  0.000  0.005
   14  0.002  0.000  0.000  0.000  0.005  0.001  0.005  0.002  0.002  0.018
   15  0.000  0.000  0.000  0.000  0.001  0.002  0.000  0.000  0.000  0.005
   16  0.003  0.000  0.000  0.000  0.006  0.000  0.004  0.001  0.002  0.016
   17  0.001  0.000  0.003  0.000  0.000  0.000  0.000  0.000  0.000  0.004
   18  0.000  0.000  0.003  0.001  0.000  0.000  0.000  0.000  0.000  0.004
tot    0.052  0.002  0.009  0.005  0.240  0.099  0.077  0.290  0.080  0.853
 
band    15 # energy   -6.57766056 # occ.  2.00000000
 
ion      s     py     pz     px    dxy    dyz    dz2    dxz  x2-y2    tot
    1  0.005  0.000  0.000  0.000  0.003  0.001  0.000  0.003  0.001  0.014
    2  0.000  0.002  0.000  0.001  0.012  0.173  0.000  0.058  0.038  0.284
    3  0.005  0.000  0.000  0.000  0.003  0.001  0.000  0.003  0.001  0.014
    4  0.000  0.002  0.000  0.001  0.012  0.168  0.000  0.056  0.037  0.275
    5  0.000  0.000  0.000  0.000  0.001  0.011  0.000  0.004  0.002  0.017
    6  0.006  0.000  0.001  0.001  0.002  0.020  0.018  0.062  0.001  0.111
    7  0.000  0.000  0.000  0.000  0.001  0.011  0.000  0.004  0.002  0.017
    8  0.006  0.000  0.001  0.001  0.003  0.021  0.018  0.060  0.001  0.111
    9  0.000  0.000  0.000  0.000  0.000  0.002  0.000  0.001  0.000  0.003
   10  0.001  0.000  0.000  0.000  0.000  0.000  0.004  0.001  0.000  0.006
   11  0.000  0.000  0.000  0.000  0.000  0.002  0.000  0.001  0.000  0.003
   12  0.001  0.000  0.000  0.000  0.000  0.000  0.004  0.001  0.000  0.006
   13  0.000  0.000  0.000  0.000  0.000  0.000  0.000  0.000  0.000  0.001
   14  0.000  0.000  0.000  0.000  0.001  0.002  0.000  0.001  0.002  0.006
   15  0.000  0.000  0.000  0.000  0.000  0.000  0.000  0.000  0.000  0.001
   16  0.000  0.000  0.000  0.000  0.001  0.003  0.000  0.001  0.002  0.006
   17  0.000  0.000  0.000  0.000  0.000  0.000  0.000  0.000  0.000  0.000
   18  0.000  0.000  0.000  0.000  0.000  0.000  0.000  0.000  0.000  0.000
tot    0.022  0.006  0.002  0.003  0.039  0.415  0.046  0.255  0.086  0.875
 
band    16 # energy   -6.56829265 # occ.  2.00000000
 
ion      s     py     pz     px    dxy    dyz    dz2    dxz  x2-y2    tot
    1  0.000  0.000  0.000  0.000  0.001  0.000  0.000  0.000  0.000  0.002
    2  0.000  0.000  0.000  0.000  0.018  0.001  0.025  0.002  0.006  0.053
    3  0.000  0.000  0.000  0.000  0.001  0.000  0.000  0.000  0.000  0.002
    4  0.006  0.000  0.001  0.000  0.017  0.002  0.001  0.005  0.006  0.038
    5  0.000  0.000  0.001  0.000  0.000  0.000  0.007  0.001  0.000  0.010
    6  0.000  0.001  0.001  0.000  0.002  0.031  0.004  0.004  0.017  0.059
    7  0.001  0.000  0.000  0.000  0.001  0.000  0.002  0.000  0.000  0.007
    8  0.000  0.000  0.001  0.000  0.019  0.021  0.004  0.014  0.001  0.059
    9  0.000  0.000  0.000  0.000  0.017  0.001  0.001  0.002  0.006  0.026
   10  0.001  0.000  0.000  0.000  0.166  0.020  0.000  0.021  0.024  0.232
   11  0.018  0.000  0.000  0.000  0.001  0.000  0.006  0.001  0.000  0.027
   12  0.001  0.000  0.000  0.000  0.005  0.038  0.000  0.002  0.186  0.232
   13  0.000  0.000  0.000  0.000  0.002  0.000  0.002  0.000  0.001  0.005
   14  0.003  0.000  0.000  0.000  0.022  0.001  0.041  0.002  0.007  0.076
   15  0.000  0.000  0.000  0.000  0.002  0.001  0.002  0.000  0.000  0.005
   16  0.013  0.000  0.001  0.000  0.027  0.000  0.000  0.001  0.009  0.051
   17  0.000  0.000  0.000  0.000  0.000  0.000  0.000  0.000  0.000  0.000
   18  0.000  0.000  0.000  0.001  0.000  0.000  0.000  0.000  0.000  0.001
tot    0.043  0.002  0.006  0.002  0.301  0.116  0.096  0.056  0.264  0.887
 
band    17 # energy   -6.56311987 # occ.  2.00000000
 
ion      s     py     pz     px    dxy    dyz    dz2    dxz  x2-y2    tot
    1  0.000  0.000  0.000  0.000  0.001  0.000  0.000  0.000  0.000  0.002
    2  0.005  0.000  0.000  0.000  0.020  0.001  0.000  0.003  0.007  0.036
    3  0.000  0.000  0.000  0.000  0.001  0.000  0.000  0.000  0.000  0.002
    4  0.000  0.000  0.000  0.000  0.019  0.000  0.024  0.001  0.006  0.052
    5  0.001  0.000  0.000  0.000  0.001  0.000  0.002  0.000  0.000  0.005
    6  0.000  0.000  0.001  0.000  0.016  0.015  0.004  0.009  0.001  0.045
    7  0.000  0.000  0.001  0.000  0.000  0.000  0.007  0.001  0.000  0.009
    8  0.000  0.001  0.001  0.000  0.002  0.020  0.004  0.003  0.015  0.045
    9  0.018  0.000  0.000  0.000  0.000  0.000  0.007  0.001  0.000  0.025
   10  0.001  0.000  0.000  0.000  0.021  0.033  0.000  0.002  0.183  0.240
   11  0.000  0.000  0.000  0.000  0.017  0.001  0.001  0.002  0.006  0.026
   12  0.001  0.000  0.000  0.000  0.196  0.016  0.000  0.019  0.008  0.240
   13  0.000  0.000  0.000  0.000  0.002  0.000  0.002  0.000  0.001  0.007
   14  0.015  0.000  0.001  0.000  0.029  0.002  0.000  0.005  0.009  0.061
   15  0.000  0.000  0.000  0.000  0.003  0.000  0.002  0.000  0.001  0.007
   16  0.004  0.000  0.000  0.000  0.031  0.001  0.033  0.003  0.010  0.083
   17  0.000  0.000  0.000  0.000  0.000  0.000  0.000  0.000  0.000  0.000
   18  0.000  0.000  0.000  0.000  0.000  0.000  0.000  0.000  0.000  0.000
tot    0.047  0.001  0.006  0.001  0.358  0.090  0.086  0.049  0.247  0.885
 
band    18 # energy   -6.48235568 # occ.  2.00000000
 
ion      s     py     pz     px    dxy    dyz    dz2    dxz  x2-y2    tot
    1  0.000  0.000  0.000  0.000  0.000  0.000  0.000  0.000  0.000  0.001
    2  0.000  0.000  0.000  0.000  0.001  0.004  0.000  0.001  0.003  0.009
    3  0.000  0.000  0.000  0.000  0.000  0.000  0.000  0.000  0.000  0.001
    4  0.000  0.000  0.000  0.000  0.001  0.004  0.000  0.001  0.003  0.009
    5  0.000  0.000  0.000  0.000  0.001  0.000  0.000  0.000  0.003  0.005
    6  0.002  0.000  0.000  0.000  0.005  0.000  0.000  0.001  0.002  0.009
    7  0.000  0.000  0.000  0.000  0.001  0.000  0.000  0.000  0.003  0.005
    8  0.002  0.000  0.000  0.000  0.005  0.000  0.000  0.001  0.002  0.010
    9  0.000  0.000  0.000  0.000  0.000  0.001  0.000  0.000  0.000  0.002
   10  0.003  0.000  0.000  0.000  0.000  0.001  0.042  0.004  0.000  0.051
   11  0.000  0.000  0.000  0.000  0.000  0.001  0.000  0.000  0.000  0.002
   12  0.003  0.000  0.000  0.000  0.000  0.001  0.042  0.004  0.000  0.051
   13  0.012  0.000  0.000  0.000  0.021  0.000  0.010  0.003  0.006  0.052
   14  0.000  0.000  0.000  0.000  0.062  0.010  0.000  0.003  0.188  0.264
   15  0.012  0.000  0.000  0.000  0.020  0.002  0.010  0.000  0.007  0.052
   16  0.000  0.000  0.000  0.000  0.063  0.013  0.000  0.004  0.188  0.268
   17  0.000  0.011  0.000  0.004  0.000  0.000  0.000  0.000  0.000  0.014
   18  0.000  0.043  0.000  0.014  0.000  0.000  0.000  0.000  0.000  0.057
tot    0.034  0.055  0.002  0.019  0.181  0.038  0.104  0.023  0.406  0.862
 
band    19 # energy   -6.26626456 # occ.  2.00000000
 
ion      s     py     pz     px    dxy    dyz    dz2    dxz  x2-y2    tot
    1  0.014  0.000  0.000  0.000  0.003  0.001  0.009  0.001  0.000  0.028
    2  0.004  0.000  0.000  0.000  0.074  0.001  0.004  0.004  0.025  0.111
    3  0.014  0.000  0.000  0.000  0.002  0.000  0.009  0.001  0.001  0.028
    4  0.003  0.000  0.000  0.000  0.066  0.002  0.004  0.007  0.022  0.104
    5  0.001  0.000  0.001  0.000  0.000  0.002  0.010  0.005  0.000  0.019
    6  0.006  0.000  0.001  0.001  0.001  0.007  0.000  0.035  0.002  0.053
    7  0.000  0.000  0.001  0.001  0.000  0.002  0.009  0.005  0.000  0.017
    8  0.006  0.000  0.001  0.001  0.003  0.015  0.000  0.027  0.000  0.053
    9  0.000  0.000  0.000  0.000  0.000  0.002  0.000  0.007  0.000  0.011
   10  0.002  0.000  0.000  0.000  0.000  0.016  0.053  0.074  0.000  0.146
   11  0.001  0.000  0.000  0.000  0.000  0.002  0.000  0.006  0.000  0.010
   12  0.002  0.000  0.000  0.000  0.000  0.029  0.053  0.061  0.000  0.146
   13  0.001  0.001  0.001  0.000  0.000  0.000  0.000  0.008  0.000  0.011
   14  0.001  0.000  0.000  0.000  0.024  0.006  0.000  0.017  0.008  0.056
   15  0.001  0.000  0.001  0.001  0.000  0.006  0.000  0.002  0.000  0.011
   16  0.001  0.000  0.000  0.001  0.017  0.003  0.000  0.009  0.006  0.036
   17  0.001  0.000  0.003  0.001  0.000  0.000  0.000  0.000  0.000  0.004