<?xml version="1.0" encoding="ISO-8859-1"?>
<modeling>
 <generator>
  <i name="program" type="string">vasp </i>
  <i name="version" type="string">6.5.1  </i>
  <i name="subversion" type="string">10Mar25 (build Mar 14 2026 15:48:08) complex                          parallel </i>
  <i name="platform" type="string">LinuxNV </i>
  <i name="date" type="string">2026 03 23 </i>
  <i name="time" type="string">16:08:09 </i>
 </generator>
 <incar>
  <i type="string" name="SYSTEM">Cu-Ag alloy CO adsorption (RPBE, matches CatHub)</i>
  <i type="string" name="PREC">Normal</i>
  <i type="string" name="ALGO">Normal</i>
  <i type="int" name="ISPIN">     1</i>
  <i type="int" name="NELM">   200</i>
  <i type="int" name="IBRION">     2</i>
  <i name="EDIFF">      0.00000100</i>
  <i name="EDIFFG">     -0.03000000</i>
  <i type="int" name="NSW">   200</i>
  <i type="int" name="ISIF">     2</i>
  <i name="ENCUT">    450.00000000</i>
  <i type="string" name="LREAL">Auto</i>
  <i type="int" name="ISMEAR">     0</i>
  <i name="SIGMA">      0.10000000</i>
  <i type="logical" name="LWAVE"> F  </i>
  <i type="logical" name="LCHARG"> F  </i>
  <i type="int" name="LORBIT">    11</i>
  <i type="string" name="GGA">RP</i>
 </incar>
 <primitive_cell>
  <structure name="primitive_cell" >
   <crystal>
    <varray name="basis" >
     <v>       5.44472222       0.00000000       0.00000000 </v>
     <v>       2.72236111       4.71526775       0.00000000 </v>
     <v>       0.00000000       0.00000000      30.66839561 </v>
    </varray>
    <i name="volume">    787.35962928 </i>
    <varray name="rec_basis" >
     <v>       0.18366410      -0.10603852       0.00000000 </v>
     <v>       0.00000000       0.21207703       0.00000000 </v>
     <v>       0.00000000       0.00000000       0.03260686 </v>
    </varray>
   </crystal>
   <varray name="positions" >
    <v>       0.00000000       0.00000000       0.39128229 </v>
    <v>       0.50000000       0.00000000       0.39128229 </v>
    <v>       0.00000000       0.50000000       0.39128229 </v>
    <v>       0.50000000       0.50000000       0.39128229 </v>
    <v>       0.16666667       0.16666667       0.46376076 </v>
    <v>       0.66666667       0.16666667       0.46376076 </v>
    <v>       0.16666667       0.66666667       0.46376076 </v>
    <v>       0.66666667       0.66666667       0.46376076 </v>
    <v>       0.83333333       0.33333333       0.53623924 </v>
    <v>       0.33333333       0.33333333       0.53623924 </v>
    <v>       0.83333333       0.83333333       0.53623924 </v>
    <v>       0.33333333       0.83333333       0.53623924 </v>
    <v>       0.00000000       0.00000000       0.60871771 </v>
    <v>       0.50000000       0.00000000       0.60871771 </v>
    <v>       0.00000000       0.50000000       0.60871771 </v>
    <v>       0.50000000       0.50000000       0.60871771 </v>
    <v>       0.16666667       0.16666667       0.66741006 </v>
    <v>       0.16666667       0.16666667       0.70425580 </v>
   </varray>
  </structure>
  <varray name="primitive_index" >
   <v type="int" >        1 </v>
   <v type="int" >        2 </v>
   <v type="int" >        3 </v>
   <v type="int" >        4 </v>
   <v type="int" >        5 </v>
   <v type="int" >        6 </v>
   <v type="int" >        7 </v>
   <v type="int" >        8 </v>
   <v type="int" >        9 </v>
   <v type="int" >       10 </v>
   <v type="int" >       11 </v>
   <v type="int" >       12 </v>
   <v type="int" >       13 </v>
   <v type="int" >       14 </v>
   <v type="int" >       15 </v>
   <v type="int" >       16 </v>
   <v type="int" >       17 </v>
   <v type="int" >       18 </v>
  </varray>
 </primitive_cell>
 <kpoints>
  <generation param="Gamma">
   <v type="int" name="divisions">       4        4        1 </v>
   <v name="usershift">      0.00000000       0.00000000       0.00000000 </v>
   <v name="genvec1">      0.25000000       0.00000000       0.00000000 </v>
   <v name="genvec2">      0.00000000       0.25000000       0.00000000 </v>
   <v name="genvec3">      0.00000000       0.00000000       1.00000000 </v>
   <v name="shift">      0.00000000       0.00000000       0.00000000 </v>
  </generation>
  <varray name="kpointlist" >
   <v>       0.00000000       0.00000000       0.00000000 </v>
   <v>       0.25000000       0.00000000       0.00000000 </v>
   <v>       0.25000000       0.25000000       0.00000000 </v>
   <v>       0.00000000       0.25000000       0.00000000 </v>
   <v>       0.50000000       0.00000000       0.00000000 </v>
   <v>       0.50000000       0.50000000       0.00000000 </v>
   <v>       0.00000000       0.50000000       0.00000000 </v>
   <v>       0.50000000       0.25000000       0.00000000 </v>
   <v>       0.25000000       0.50000000       0.00000000 </v>
   <v>      -0.25000000       0.25000000       0.00000000 </v>
  </varray>
  <varray name="weights" >
   <v>       0.06250000 </v>
   <v>       0.12500000 </v>
   <v>       0.12500000 </v>
   <v>       0.12500000 </v>
   <v>       0.06250000 </v>
   <v>       0.06250000 </v>
   <v>       0.06250000 </v>
   <v>       0.12500000 </v>
   <v>       0.12500000 </v>
   <v>       0.12500000 </v>
  </varray>
 </kpoints>
 <parameters>
  <separator name="general" >
   <i type="string" name="SYSTEM">Cu-Ag alloy CO adsorption (RPBE, matches</i>
   <i type="logical" name="LCOMPAT"> F  </i>
  </separator>
  <separator name="electronic" >
   <i type="string" name="PREC">normal</i>
   <i name="ENMAX">    450.00000000</i>
   <i name="ENAUG">    644.87300000</i>
   <i name="EDIFF">      0.00000100</i>
   <i type="int" name="IALGO">    38</i>
   <i type="int" name="IWAVPR">    11</i>
   <i type="int" name="NBANDS">   111</i>
   <i type="int" name="NBANDSLOW">    -1</i>
   <i type="int" name="NBANDSHIGH">    -1</i>
   <i name="NELECT">    186.00000000</i>
   <i type="int" name="TURBO">     0</i>
   <i type="int" name="IRESTART">     0</i>
   <i type="int" name="NREBOOT">     0</i>
   <i type="int" name="NMIN">     0</i>
   <i name="EREF">      0.00000000</i>
   <separator name="electronic smearing" >
    <i type="int" name="ISMEAR">     0</i>
    <i name="SIGMA">      0.10000000</i>
    <i name="KSPACING">      0.50000000</i>
    <i type="logical" name="KGAMMA"> T  </i>
    <i type="logical" name="KBLOWUP"> T  </i>
   </separator>
   <separator name="electronic projectors" >
    <i type="logical" name="LREAL"> T  </i>
    <v name="ROPT">     -0.00050000     -0.00050000     -0.00050000     -0.00050000     -0.00050000     -0.00050000     -0.00050000     -0.00050000     -0.00050000     -0.00050000     -0.00050000     -0.00050000     -0.00050000     -0.00050000     -0.00050000     -0.00050000     -0.00050000     -0.00050000</v>
    <i type="int" name="LMAXPAW">  -100</i>
    <i type="int" name="LMAXMIX">     2</i>
    <i type="logical" name="NLSPLINE"> F  </i>
   </separator>
   <separator name="electronic startup" >
    <i type="int" name="ISTART">     0</i>
    <i type="int" name="ICHARG">     2</i>
    <i type="int" name="INIWAV">     1</i>
   </separator>
   <separator name="electronic spin" >
    <i type="int" name="ISPIN">     1</i>
    <i type="logical" name="LNONCOLLINEAR"> F  </i>
    <v name="MAGMOM">      1.00000000      1.00000000      1.00000000      1.00000000      1.00000000      1.00000000      1.00000000      1.00000000      1.00000000      1.00000000      1.00000000      1.00000000      1.00000000      1.00000000      1.00000000      1.00000000      1.00000000      1.00000000</v>
    <i name="NUPDOWN">     -1.00000000</i>
    <i type="logical" name="LSORBIT"> F  </i>
    <v name="SAXIS">      0.00000000      0.00000000      1.00000000</v>
    <i type="logical" name="LSPIRAL"> F  </i>
    <v name="QSPIRAL">      0.00000000      0.00000000      0.00000000</v>
    <i type="logical" name="LZEROZ"> F  </i>
   </separator>
   <separator name="electronic exchange-correlation" >
    <i type="logical" name="LASPH"> F  </i>
   </separator>
   <separator name="electronic convergence" >
    <i type="int" name="NELM">   200</i>
    <i type="int" name="NELMDL">    -5</i>
    <i type="int" name="NELMIN">     2</i>
    <i name="ENINI">    450.00000000</i>
    <separator name="electronic convergence detail" >
     <i type="logical" name="LDIAG"> T  </i>
     <i type="logical" name="LSUBROT"> F  </i>
     <i type="logical" name="LROBUST"> F  </i>
     <i type="int" name="ISEARCH">     0</i>
     <i name="WEIMIN">      0.00100000</i>
     <i name="EBREAK">      0.00000000</i>
     <i name="DEPER">      0.30000000</i>
     <i type="int" name="NRMM">     4</i>
     <i name="TIME">      0.40000000</i>
    </separator>
   </separator>
   <separator name="electronic mixer" >
    <i name="AMIX">      0.40000000</i>
    <i name="BMIX">      1.00000000</i>
    <i name="AMIN">      0.10000000</i>
    <i name="AMIX_MAG">      1.60000000</i>
    <i name="BMIX_MAG">      1.00000000</i>
    <separator name="electronic mixer details" >
     <i type="int" name="IMIX">     4</i>
     <i type="logical" name="MIXFIRST"> F  </i>
     <i type="int" name="MAXMIX">   -45</i>
     <i name="WC">    100.00000000</i>
     <i type="int" name="INIMIX">     1</i>
     <i type="int" name="MIXPRE">     1</i>
     <i type="int" name="MREMOVE">     5</i>
    </separator>
   </separator>
   <separator name="electronic dipolcorrection" >
    <i type="logical" name="LDIPOL"> F  </i>
    <i type="logical" name="LMONO"> F  </i>
    <i type="int" name="IDIPOL">     0</i>
    <i name="EPSILON">      1.00000000</i>
    <v name="DIPOL">   -100.00000000   -100.00000000   -100.00000000</v>
    <i name="EFIELD">      0.00000000</i>
    <i type="logical" name="LVACPOTAV"> F  </i>
   </separator>
  </separator>
  <separator name="grids" >
   <i type="int" name="NGX">    28</i>
   <i type="int" name="NGY">    28</i>
   <i type="int" name="NGZ">   160</i>
   <i type="int" name="NGXF">    56</i>
   <i type="int" name="NGYF">    56</i>
   <i type="int" name="NGZF">   320</i>
   <i type="logical" name="ADDGRID"> F  </i>
  </separator>
  <separator name="ionic" >
   <i type="int" name="NSW">   200</i>
   <i type="int" name="IBRION">     2</i>
   <i type="int" name="MDALGO">     0</i>
   <i type="int" name="ISIF">     2</i>
   <i name="PSTRESS">      0.00000000</i>
   <i name="EDIFFG">     -0.03000000</i>
   <i type="int" name="NFREE">     1</i>
   <i name="POTIM">      0.50000000</i>
   <i name="SMASS">     -3.00000000</i>
   <i name="SCALEE">      1.00000000</i>
  </separator>
  <separator name="ionic md" >
   <i name="TEBEG">      0.00010000</i>
   <i name="TEEND">      0.00010000</i>
   <i type="int" name="NBLOCK">     1</i>
   <i type="int" name="KBLOCK">   200</i>
   <i type="int" name="NPACO">   256</i>
   <i name="APACO">     10.00000000</i>
  </separator>
  <separator name="symmetry" >
   <i type="int" name="ISYM">     2</i>
   <i name="SYMPREC">      0.00001000</i>
  </separator>
  <separator name="dos" >
   <i type="int" name="LORBIT">    11</i>
   <v name="RWIGS">     -1.00000000     -1.00000000     -1.00000000     -1.00000000     -1.00000000     -1.00000000     -1.00000000     -1.00000000     -1.00000000     -1.00000000     -1.00000000     -1.00000000     -1.00000000     -1.00000000     -1.00000000     -1.00000000     -1.00000000     -1.00000000</v>
   <i type="int" name="NEDOS">   301</i>
   <i name="EMIN">     10.00000000</i>
   <i name="EMAX">    -10.00000000</i>
   <i name="EFERMI">      0.00000000</i>
  </separator>
  <separator name="writing" >
   <i type="int" name="NWRITE">     2</i>
   <i type="logical" name="LWAVE"> F  </i>
   <i type="logical" name="LDOWNSAMPLE"> F  </i>
   <i type="logical" name="LCHARG"> F  </i>
   <i type="logical" name="LPARD"> F  </i>
   <i type="logical" name="LVTOT"> F  </i>
   <i type="logical" name="LVHAR"> F  </i>
   <i type="logical" name="LELF"> F  </i>
   <i type="logical" name="LOPTICS"> F  </i>
   <v name="STM">      0.00000000      0.00000000      0.00000000      0.00000000      0.00000000      0.00000000      0.00000000</v>
  </separator>
  <separator name="performance" >
   <i type="int" name="NPAR">     1</i>
   <i type="int" name="NSIM">     4</i>
   <i type="int" name="NBLK">    -1</i>
   <i type="logical" name="LPLANE"> T  </i>
   <i type="logical" name="LSCALAPACK"> T  </i>
   <i type="logical" name="LSCAAWARE"> F  </i>
   <i type="logical" name="LSCALU"> F  </i>
   <i type="logical" name="LASYNC"> F  </i>
   <i type="logical" name="LORBITALREAL"> F  </i>
  </separator>
  <separator name="miscellaneous" >
   <i type="int" name="IDIOT">     3</i>
   <i type="int" name="PHON_NSTRUCT">    -1</i>
   <i type="logical" name="LMUSIC"> F  </i>
   <v name="POMASS">     63.54600000    107.86800000     63.54600000    107.86800000     63.54600000    107.86800000     63.54600000    107.86800000     63.54600000    107.86800000     63.54600000    107.86800000     63.54600000    107.86800000     63.54600000    107.86800000     12.01100000     16.00000000</v>
   <v name="DARWINR">      0.00000000      0.00000000      0.00000000      0.00000000      0.00000000      0.00000000      0.00000000      0.00000000      0.00000000      0.00000000      0.00000000      0.00000000      0.00000000      0.00000000      0.00000000      0.00000000      0.00000000      0.00000000</v>
   <v name="DARWINV">      1.00000000      1.00000000      1.00000000      1.00000000      1.00000000      1.00000000      1.00000000      1.00000000      1.00000000      1.00000000      1.00000000      1.00000000      1.00000000      1.00000000      1.00000000      1.00000000      1.00000000      1.00000000</v>
   <i type="logical" name="LCORR"> T  </i>
  </separator>
  <i type="logical" name="GGA_COMPAT"> T  </i>
  <i type="logical" name="LBERRY"> F  </i>
  <i type="int" name="ICORELEVEL">     0</i>
  <i type="logical" name="LDAU"> F  </i>
  <i type="int" name="I_CONSTRAINED_M">     0</i>
  <separator name="electronic exchange-correlation" >
   <i type="string" name="GGA    ">RP</i>
   <i type="string" name="XC_C">1</i>
   <i type="int" name="VOSKOWN">     0</i>
   <i type="logical" name="LHFCALC"> F  </i>
   <i type="string" name="PRECFOCK"></i>
   <i type="logical" name="LSYMGRAD"> F  </i>
   <i type="logical" name="LHFONE"> F  </i>
   <i type="logical" name="LRHFCALC"> F  </i>
   <i type="logical" name="LTHOMAS"> F  </i>
   <i type="logical" name="LMODELHF"> F  </i>
   <i type="logical" name="LFOCKACE"> F  </i>
   <i name="ENCUT4O">     -1.00000000</i>
   <i type="int" name="EXXOEP">     0</i>
   <i type="int" name="FOURORBIT">     0</i>
   <i name="AEXX">      0.00000000</i>
   <i name="HFALPHA">      0.00000000</i>
   <i name="MCALPHA">      0.00000000</i>
   <i name="ALDAX">      1.00000000</i>
   <i name="AGGAX">      1.00000000</i>
   <i name="AMGGAX">      1.00000000</i>
   <i name="ALDAC">      1.00000000</i>
   <i name="AGGAC">      1.00000000</i>
   <i name="AMGGAC">      1.00000000</i>
   <i type="int" name="NKREDX">     1</i>
   <i type="int" name="NKREDY">     1</i>
   <i type="int" name="NKREDZ">     1</i>
   <i type="logical" name="SHIFTRED"> F  </i>
   <i type="logical" name="ODDONLY"> F  </i>
   <i type="logical" name="EVENONLY"> F  </i>
   <i type="int" name="LMAXFOCK">     0</i>
   <i type="int" name="NMAXFOCKAE">     0</i>
   <i type="logical" name="LFOCKAEDFT"> F  </i>
   <i name="HFSCREEN">      0.00000000</i>
   <i name="HFSCREENC">      0.00000000</i>
   <i type="int" name="NBANDSGWLOW">     0</i>
  </separator>
  <separator name="vdW DFT" >
   <i type="logical" name="LUSE_VDW"> F  </i>
   <i type="int" name="IVDW_NL">    -1</i>
   <i type="logical" name="LSPIN_VDW"> F  </i>
   <i name="ZAB_VDW">     -0.84910000</i>
   <i name="GAMMA_VDW">      1.39626340</i>
   <i name="ALPHA_VDW">      0.00000000</i>
   <i name="PARAM1">      0.12340000</i>
   <i name="PARAM2">      1.00000000</i>
   <i name="BPARAM">      6.30000000</i>
   <i name="CPARAM">      0.00930000</i>
  </separator>
  <separator name="model GW" >
   <i type="int" name="MODEL_GW">     0</i>
   <i name="MODEL_EPS0">     26.24532098</i>
   <i name="MODEL_ALPHA">      1.00000000</i>
  </separator>
  <separator name="linear response parameters" >
   <i type="logical" name="LEPSILON"> F  </i>
   <i type="logical" name="LRPA"> F  </i>
   <i type="logical" name="LNABLA"> F  </i>
   <i type="logical" name="LVEL"> F  </i>
   <i name="CSHIFT">      0.10000000</i>
   <i name="OMEGAMAX">     -1.00000000</i>
   <i name="DEG_THRESHOLD">      0.00200000</i>
   <i name="RTIME">     -0.10000000</i>
   <i name="WPLASMAI">      0.00000000</i>
   <v name="DFIELD">      0.00000000      0.00000000      0.00000000</v>
   <v name="WPLASMA">      0.00000000      0.00000000      0.00000000      0.00000000      0.00000000      0.00000000      0.00000000      0.00000000      0.00000000</v>
  </separator>
  <separator name="orbital magnetization" >
   <i type="logical" name="NUCIND"> F  </i>
   <v name="MAGPOS">      0.00000000      0.00000000      0.00000000</v>
   <i type="logical" name="LNICSALL"> T  </i>
   <i type="logical" name="ORBITALMAG"> F  </i>
   <i type="logical" name="LMAGBLOCH"> F  </i>
   <i type="logical" name="LCHIMAG"> F  </i>
   <i type="logical" name="LGAUGE"> T  </i>
   <i type="int" name="MAGATOM">     0</i>
   <v name="MAGDIPOL">      0.00000000      0.00000000      0.00000000</v>
   <v name="AVECCONST">      0.00000000      0.00000000      0.00000000</v>
  </separator>
  <separator name="response functions" >
   <i type="logical" name="LALL_IN_ONE"> F  </i>
   <i type="int" name="IALL_IN_ONE">    -1</i>
   <i type="int" name="NBANDS_WAVE">    -1</i>
   <i type="logical" name="LFINITE_TEMPERATURE"> F  </i>
   <i type="logical" name="LADDER"> F  </i>
   <i type="logical" name="LRPAFORCE"> F  </i>
   <i type="logical" name="LFXC"> F  </i>
   <i type="logical" name="LHARTREE"> T  </i>
   <i type="int" name="IBSE">     2</i>
   <v type="int" name="KPOINT">    -1     0     0     0</v>
   <i type="logical" name="LTCTC"> F  </i>
   <i type="logical" name="LTCTE"> F  </i>
   <i type="logical" name="LTETE"> F  </i>
   <i type="logical" name="LTRIPLET"> F  </i>
   <i type="logical" name="LFXCEPS"> F  </i>
   <i type="logical" name="LFXHEG"> F  </i>
   <i type="int" name="NATURALO">     2</i>
   <i type="logical" name="LHOLEGF"> F  </i>
   <i type="logical" name="L2ORDER"> F  </i>
   <i type="logical" name="LDMP1"> F  </i>
   <i type="logical" name="LMP2LT"> F  </i>
   <i type="logical" name="LSMP2LT"> F  </i>
   <i type="logical" name="LGWLF"> F  </i>
   <i name="ENCUTGW">     -1.60000002</i>
   <i name="ENCUTGWSOFT">     -1.60000002</i>
   <i name="ENCUTLF">     -1.00000000</i>
   <i type="logical" name="ESF_SPLINES"> F  </i>
   <i name="ESF_CONV">      0.01000000</i>
   <i type="int" name="ESF_NINTER">    15</i>
   <i type="int" name="LMAXMP2">    -1</i>
   <i name="SCISSOR">      0.00000000</i>
   <i type="int" name="NOMEGA">     0</i>
   <i type="int" name="NOMEGAR">     0</i>
   <i type="int" name="NBANDSGW">    -1</i>
   <i type="int" name="NBANDSO">    -1</i>
   <i type="int" name="NBANDSV">    -1</i>
   <i type="int" name="NELMGW">     1</i>
   <i type="int" name="NELMHF">     1</i>
   <i type="int" name="DIM">     3</i>
   <i type="int" name="IESPILON">     4</i>
   <i type="int" name="ANTIRES">     0</i>
   <i name="OMEGAMAX">    -30.00000000</i>
   <i name="OMEGAMIN">    -30.00000000</i>
   <i name="OMEGATL">   -200.00000000</i>
   <i type="int" name="OMEGAGRID">     0</i>
   <i name="CSHIFT">     -0.10000000</i>
   <i type="logical" name="LSELFENERGY"> F  </i>
   <i type="logical" name="LSPECTRAL"> F  </i>
   <i type="logical" name="LSPECTRALGW"> F  </i>
   <i type="logical" name="LSINGLES"> F  </i>
   <i type="logical" name="LFERMIGW"> F  </i>
   <i type="logical" name="ODDONLYGW"> F  </i>
   <i type="logical" name="EVENONLYGW"> F  </i>
   <i type="int" name="NKREDLFX">     1</i>
   <i type="int" name="NKREDLFY">     1</i>
   <i type="int" name="NKREDLFZ">     1</i>
   <i type="int" name="MAXMEM">  2800</i>
   <i type="int" name="TELESCOPE">     0</i>
   <i type="int" name="NTAUPAR">    -1</i>
   <i type="int" name="NOMEGAPAR">    -1</i>
   <i name="DAMP_NEWTON">      0.80000001</i>
   <i name="LAMBDA">      1.00000000</i>
  </separator>
  <separator name="External order field" >
   <i name="OFIELD_KAPPA">      0.00000000</i>
   <v name="OFIELD_K">      0.00000000      0.00000000      0.00000000</v>
   <i name="OFIELD_Q6_NEAR">      0.00000000</i>
   <i name="OFIELD_Q6_FAR">      0.00000000</i>
   <i name="OFIELD_A">      0.00000000</i>
  </separator>
  <separator name="optional k-points parameters" >
   <i type="int" name="KPOINTS_OPT_MODE">     1</i>
   <i type="logical" name="LKPOINTS_OPT"> F  </i>
  </separator>
 </parameters>
 <atominfo>
  <atoms>      18 </atoms>
  <types>      18 </types>
  <array name="atoms" >
   <dimension dim="1">ion</dimension>
   <field type="string">element</field>
   <field type="int">atomtype</field>
   <set>
    <rc><c>Cu</c><c>   1</c></rc>
    <rc><c>Ag</c><c>   2</c></rc>
    <rc><c>Cu</c><c>   3</c></rc>
    <rc><c>Ag</c><c>   4</c></rc>
    <rc><c>Cu</c><c>   5</c></rc>
    <rc><c>Ag</c><c>   6</c></rc>
    <rc><c>Cu</c><c>   7</c></rc>
    <rc><c>Ag</c><c>   8</c></rc>
    <rc><c>Cu</c><c>   9</c></rc>
    <rc><c>Ag</c><c>  10</c></rc>
    <rc><c>Cu</c><c>  11</c></rc>
    <rc><c>Ag</c><c>  12</c></rc>
    <rc><c>Cu</c><c>  13</c></rc>
    <rc><c>Ag</c><c>  14</c></rc>
    <rc><c>Cu</c><c>  15</c></rc>
    <rc><c>Ag</c><c>  16</c></rc>
    <rc><c>C </c><c>  17</c></rc>
    <rc><c>O </c><c>  18</c></rc>
   </set>
  </array>
  <array name="atomtypes" >
   <dimension dim="1">type</dimension>
   <field type="int">atomspertype</field>
   <field type="string">element</field>
   <field>mass</field>
   <field>valence</field>
   <field type="string">pseudopotential</field>
   <set>
    <rc><c>   1</c><c>Cu</c><c>     63.54600000</c><c>     11.00000000</c><c>  PAW_PBE Cu 22Jun2005                  </c></rc>
    <rc><c>   1</c><c>Ag</c><c>    107.86800000</c><c>     11.00000000</c><c>  PAW_PBE Ag 02Apr2005                  </c></rc>
    <rc><c>   1</c><c>Cu</c><c>     63.54600000</c><c>     11.00000000</c><c>  PAW_PBE Cu 22Jun2005                  </c></rc>
    <rc><c>   1</c><c>Ag</c><c>    107.86800000</c><c>     11.00000000</c><c>  PAW_PBE Ag 02Apr2005                  </c></rc>
    <rc><c>   1</c><c>Cu</c><c>     63.54600000</c><c>     11.00000000</c><c>  PAW_PBE Cu 22Jun2005                  </c></rc>
    <rc><c>   1</c><c>Ag</c><c>    107.86800000</c><c>     11.00000000</c><c>  PAW_PBE Ag 02Apr2005                  </c></rc>
    <rc><c>   1</c><c>Cu</c><c>     63.54600000</c><c>     11.00000000</c><c>  PAW_PBE Cu 22Jun2005                  </c></rc>
    <rc><c>   1</c><c>Ag</c><c>    107.86800000</c><c>     11.00000000</c><c>  PAW_PBE Ag 02Apr2005                  </c></rc>
    <rc><c>   1</c><c>Cu</c><c>     63.54600000</c><c>     11.00000000</c><c>  PAW_PBE Cu 22Jun2005                  </c></rc>
    <rc><c>   1</c><c>Ag</c><c>    107.86800000</c><c>     11.00000000</c><c>  PAW_PBE Ag 02Apr2005                  </c></rc>
    <rc><c>   1</c><c>Cu</c><c>     63.54600000</c><c>     11.00000000</c><c>  PAW_PBE Cu 22Jun2005                  </c></rc>
    <rc><c>   1</c><c>Ag</c><c>    107.86800000</c><c>     11.00000000</c><c>  PAW_PBE Ag 02Apr2005                  </c></rc>
    <rc><c>   1</c><c>Cu</c><c>     63.54600000</c><c>     11.00000000</c><c>  PAW_PBE Cu 22Jun2005                  </c></rc>
    <rc><c>   1</c><c>Ag</c><c>    107.86800000</c><c>     11.00000000</c><c>  PAW_PBE Ag 02Apr2005                  </c></rc>
    <rc><c>   1</c><c>Cu</c><c>     63.54600000</c><c>     11.00000000</c><c>  PAW_PBE Cu 22Jun2005                  </c></rc>
    <rc><c>   1</c><c>Ag</c><c>    107.86800000</c><c>     11.00000000</c><c>  PAW_PBE Ag 02Apr2005                  </c></rc>
    <rc><c>   1</c><c>C </c><c>     12.01100000</c><c>      4.00000000</c><c>  PAW_PBE C 08Apr2002                   </c></rc>
    <rc><c>   1</c><c>O </c><c>     16.00000000</c><c>      6.00000000</c><c>  PAW_PBE O 08Apr2002                   </c></rc>
   </set>
  </array>
 </atominfo>
 <structure name="initialpos" >
  <crystal>
   <varray name="basis" >
    <v>       5.44472222       0.00000000       0.00000000 </v>
    <v>       2.72236111       4.71526775       0.00000000 </v>
    <v>       0.00000000       0.00000000      30.66839561 </v>
   </varray>
   <i name="volume">    787.35962928 </i>
   <varray name="rec_basis" >
    <v>       0.18366410      -0.10603852       0.00000000 </v>
    <v>       0.00000000       0.21207703       0.00000000 </v>
    <v>       0.00000000       0.00000000       0.03260686 </v>
   </varray>
  </crystal>
  <varray name="positions" >
   <v>       0.00000000       0.00000000       0.39128229 </v>
   <v>       0.50000000       0.00000000       0.39128229 </v>
   <v>       0.00000000       0.50000000       0.39128229 </v>
   <v>       0.50000000       0.50000000       0.39128229 </v>
   <v>       0.16666667       0.16666667       0.46376076 </v>
   <v>       0.66666667       0.16666667       0.46376076 </v>
   <v>       0.16666667       0.66666667       0.46376076 </v>
   <v>       0.66666667       0.66666667       0.46376076 </v>
   <v>       0.83333333       0.33333333       0.53623924 </v>
   <v>       0.33333333       0.33333333       0.53623924 </v>
   <v>       0.83333333       0.83333333       0.53623924 </v>
   <v>       0.33333333       0.83333333       0.53623924 </v>
   <v>       0.00000000       0.00000000       0.60871771 </v>
   <v>       0.50000000       0.00000000       0.60871771 </v>
   <v>       0.00000000       0.50000000       0.60871771 </v>
   <v>       0.50000000       0.50000000       0.60871771 </v>
   <v>       0.16666667       0.16666667       0.66741006 </v>
   <v>       0.16666667       0.16666667       0.70425580 </v>
  </varray>
  <varray name="selective"  type="logical" >
   <v type="logical" >  F  F  F </v>
   <v type="logical" >  F  F  F </v>
   <v type="logical" >  F  F  F </v>
   <v type="logical" >  F  F  F </v>
   <v type="logical" >  F  F  F </v>
   <v type="logical" >  F  F  F </v>
   <v type="logical" >  F  F  F </v>
   <v type="logical" >  F  F  F </v>
   <v type="logical" >  T  T  T </v>
   <v type="logical" >  T  T  T </v>
   <v type="logical" >  T  T  T </v>
   <v type="logical" >  T  T  T </v>
   <v type="logical" >  T  T  T </v>
   <v type="logical" >  T  T  T </v>
   <v type="logical" >  T  T  T </v>
   <v type="logical" >  T  T  T </v>
   <v type="logical" >  T  T  T </v>
   <v type="logical" >  T  T  T </v>
  </varray>
  <nose>
   <v>      -3.00000000       0.00000000       0.00010000       0.00010000 </v>
  </nose>
 </structure>
 <calculation>
  <scstep>
   <time name="dav">    1.52    1.52</time>
   <time name="total">    1.56    1.56</time>
   <energy>
    <i name="alphaZ">    282.10255570 </i>
    <i name="ewald"> 132112.01850159 </i>
    <i name="hartreedc">-151555.43211216 </i>
    <i name="XCdc">    310.21997688 </i>
    <i name="pawpsdc">  18321.97968073 </i>
    <i name="pawaedc"> -18785.79386493 </i>
    <i name="eentropy">     -0.01476621 </i>
    <i name="bandstr">    986.81794388 </i>
    <i name="atom">  19992.63735369 </i>
    <i name="e_fr_energy">   1664.53526918 </i>
    <i name="e_wo_entrp">   1664.55003538 </i>
    <i name="e_0_energy">   1664.54265228 </i>
   </energy>
  </scstep>
  <scstep>
   <time name="dav">    1.44    1.45</time>
   <time name="total">    1.44    1.45</time>
   <energy>
    <i name="e_fr_energy">    182.83357283 </i>
    <i name="e_wo_entrp">    182.86339008 </i>
    <i name="e_0_energy">    182.84848145 </i>
   </energy>
  </scstep>
  <scstep>
   <time name="dav">    1.91    1.92</time>
   <time name="total">    1.92    1.92</time>
   <energy>
    <i name="e_fr_energy">    -41.29099209 </i>
    <i name="e_wo_entrp">    -41.24136326 </i>
    <i name="e_0_energy">    -41.26617767 </i>
   </energy>
  </scstep>
  <scstep>
   <time name="dav">    2.06    2.06</time>
   <time name="total">    2.06    2.06</time>
   <energy>
    <i name="e_fr_energy">    -60.70189855 </i>
    <i name="e_wo_entrp">    -60.66052620 </i>
    <i name="e_0_energy">    -60.68121237 </i>
   </energy>
  </scstep>
  <scstep>
   <time name="dav">    1.97    1.98</time>
   <time name="total">    2.12    2.13</time>
   <energy>
    <i name="e_fr_energy">    -61.21988518 </i>
    <i name="e_wo_entrp">    -61.17807335 </i>
    <i name="e_0_energy">    -61.19897927 </i>
   </energy>
  </scstep>
  <scstep>
   <time name="dav">    1.88    1.88</time>
   <time name="total">    2.04    2.04</time>
   <energy>
    <i name="e_fr_energy">    -61.01441058 </i>
    <i name="e_wo_entrp">    -60.98087100 </i>
    <i name="e_0_energy">    -60.99764079 </i>
   </energy>
  </scstep>
  <scstep>
   <time name="dav">    1.74    1.74</time>
   <time name="total">    1.90    1.90</time>
   <energy>
    <i name="e_fr_energy">    -53.54199345 </i>
    <i name="e_wo_entrp">    -53.50337217 </i>
    <i name="e_0_energy">    -53.52268281 </i>
   </energy>
  </scstep>
  <scstep>
   <time name="dav">    2.07    2.08</time>
   <time name="total">    2.24    2.24</time>
   <energy>
    <i name="e_fr_energy">    -55.25760251 </i>
    <i name="e_wo_entrp">    -55.23337152 </i>
    <i name="e_0_energy">    -55.24548702 </i>
   </energy>
  </scstep>
  <scstep>
   <time name="dav">    2.16    2.16</time>
   <time name="total">    2.32    2.32</time>
   <energy>
    <i name="e_fr_energy">    -53.39416395 </i>
    <i name="e_wo_entrp">    -53.35148061 </i>
    <i name="e_0_energy">    -53.37282228 </i>
   </energy>
  </scstep>
  <scstep>
   <time name="dav">    2.05    2.06</time>
   <time name="total">    2.21    2.21</time>
   <energy>
    <i name="e_fr_energy">    -53.36691230 </i>
    <i name="e_wo_entrp">    -53.32021623 </i>
    <i name="e_0_energy">    -53.34356427 </i>
   </energy>
  </scstep>
  <scstep>
   <time name="dav">    1.88    1.89</time>
   <time name="total">    2.05    2.05</time>
   <energy>
    <i name="e_fr_energy">    -53.08848598 </i>
    <i name="e_wo_entrp">    -53.03367607 </i>
    <i name="e_0_energy">    -53.06108102 </i>
   </energy>
  </scstep>
  <scstep>
   <time name="dav">    1.96    1.96</time>
   <time name="total">    2.11    2.12</time>
   <energy>
    <i name="e_fr_energy">    -53.09089134 </i>
    <i name="e_wo_entrp">    -53.03527179 </i>
    <i name="e_0_energy">    -53.06308156 </i>
   </energy>
  </scstep>
  <scstep>
   <time name="dav">    1.76    1.77</time>
   <time name="total">    1.92    1.92</time>
   <energy>
    <i name="e_fr_energy">    -53.09226560 </i>
    <i name="e_wo_entrp">    -53.03633786 </i>
    <i name="e_0_energy">    -53.06430173 </i>
   </energy>
  </scstep>
  <scstep>
   <time name="dav">    1.63    1.63</time>
   <time name="total">    1.79    1.80</time>
   <energy>
    <i name="e_fr_energy">    -53.09061726 </i>
    <i name="e_wo_entrp">    -53.03396145 </i>
    <i name="e_0_energy">    -53.06228936 </i>
   </energy>
  </scstep>
  <scstep>
   <time name="dav">    1.88    1.89</time>
   <time name="total">    2.04    2.04</time>
   <energy>
    <i name="e_fr_energy">    -53.08962533 </i>
    <i name="e_wo_entrp">    -53.03351174 </i>
    <i name="e_0_energy">    -53.06156854 </i>
   </energy>
  </scstep>
  <scstep>
   <time name="dav">    1.78    1.78</time>
   <time name="total">    1.93    1.94</time>
   <energy>
    <i name="e_fr_energy">    -53.08926985 </i>
    <i name="e_wo_entrp">    -53.03282569 </i>
    <i name="e_0_energy">    -53.06104777 </i>
   </energy>
  </scstep>
  <scstep>
   <time name="dav">    1.75    1.75</time>
   <time name="total">    1.90    1.91</time>
   <energy>
    <i name="e_fr_energy">    -53.08918964 </i>
    <i name="e_wo_entrp">    -53.03297615 </i>
    <i name="e_0_energy">    -53.06108289 </i>
   </energy>
  </scstep>
  <scstep>
   <time name="dav">    1.98    1.98</time>
   <time name="total">    2.14    2.15</time>
   <energy>
    <i name="e_fr_energy">    -53.08925285 </i>
    <i name="e_wo_entrp">    -53.03299574 </i>
    <i name="e_0_energy">    -53.06112429 </i>
   </energy>
  </scstep>
  <scstep>
   <time name="dav">    1.89    1.90</time>
   <time name="total">    2.05    2.05</time>
   <energy>
    <i name="e_fr_energy">    -53.08937097 </i>
    <i name="e_wo_entrp">    -53.03308765 </i>
    <i name="e_0_energy">    -53.06122931 </i>
   </energy>
  </scstep>
  <scstep>
   <time name="dav">    1.72    1.72</time>
   <time name="total">    1.87    1.88</time>
   <energy>
    <i name="e_fr_energy">    -53.08950677 </i>
    <i name="e_wo_entrp">    -53.03320221 </i>
    <i name="e_0_energy">    -53.06135449 </i>
   </energy>
  </scstep>
  <scstep>
   <time name="dav">    1.55    1.55</time>
   <time name="total">    1.71    1.71</time>
   <energy>
    <i name="e_fr_energy">    -53.08960474 </i>
    <i name="e_wo_entrp">    -53.03330877 </i>
    <i name="e_0_energy">    -53.06145676 </i>
   </energy>
  </scstep>
  <scstep>
   <time name="dav">    1.45    1.45</time>
   <time name="total">    1.61    1.61</time>
   <energy>
    <i name="e_fr_energy">    -53.08968083 </i>
    <i name="e_wo_entrp">    -53.03340288 </i>
    <i name="e_0_energy">    -53.06154186 </i>
   </energy>
  </scstep>
  <scstep>
   <time name="dav">    1.60    1.61</time>
   <time name="total">    1.77    1.78</time>
   <energy>
    <i name="e_fr_energy">    -53.08976179 </i>
    <i name="e_wo_entrp">    -53.03347441 </i>
    <i name="e_0_energy">    -53.06161810 </i>
   </energy>
  </scstep>
  <scstep>
   <time name="dav">    1.30    1.30</time>
   <time name="total">    1.46    1.46</time>
   <energy>
    <i name="e_fr_energy">    -53.08979544 </i>
    <i name="e_wo_entrp">    -53.03351089 </i>
    <i name="e_0_energy">    -53.06165316 </i>
   </energy>
  </scstep>
  <scstep>
   <time name="dav">    1.13    1.13</time>
   <time name="total">    1.29    1.29</time>
   <energy>
    <i name="e_fr_energy">    -53.08982149 </i>
    <i name="e_wo_entrp">    -53.03353844 </i>
    <i name="e_0_energy">    -53.06167997 </i>
   </energy>
  </scstep>
  <scstep>
   <time name="dav">    1.09    1.09</time>
   <time name="total">    1.25    1.25</time>
   <energy>
    <i name="e_fr_energy">    -53.08983954 </i>
    <i name="e_wo_entrp">    -53.03355494 </i>
    <i name="e_0_energy">    -53.06169724 </i>
   </energy>
  </scstep>
  <scstep>
   <time name="dav">    1.08    1.08</time>
   <time name="total">    1.25    1.25</time>
   <energy>
    <i name="e_fr_energy">    -53.08984706 </i>
    <i name="e_wo_entrp">    -53.03356209 </i>
    <i name="e_0_energy">    -53.06170458 </i>
   </energy>
  </scstep>
  <scstep>
   <time name="dav">    1.06    1.06</time>
   <time name="total">    1.22    1.23</time>
   <energy>
    <i name="e_fr_energy">    -53.08985541 </i>
    <i name="e_wo_entrp">    -53.03357059 </i>
    <i name="e_0_energy">    -53.06171300 </i>
   </energy>
  </scstep>
  <scstep>
   <time name="dav">    1.08    1.08</time>
   <time name="total">    1.25    1.25</time>
   <energy>
    <i name="e_fr_energy">    -53.08986122 </i>
    <i name="e_wo_entrp">    -53.03357675 </i>
    <i name="e_0_energy">    -53.06171899 </i>
   </energy>
  </scstep>
  <scstep>
   <time name="dav">    1.06    1.06</time>
   <time name="total">    1.22    1.22</time>
   <energy>
    <i name="e_fr_energy">    -53.08986395 </i>
    <i name="e_wo_entrp">    -53.03357912 </i>
    <i name="e_0_energy">    -53.06172153 </i>
   </energy>
  </scstep>
  <scstep>
   <time name="dav">    1.03    1.04</time>
   <time name="total">    1.20    1.20</time>
   <energy>
    <i name="e_fr_energy">    -53.08986576 </i>
    <i name="e_wo_entrp">    -53.03358089 </i>
    <i name="e_0_energy">    -53.06172333 </i>
   </energy>
  </scstep>
  <scstep>
   <time name="dav">    1.04    1.04</time>
   <time name="total">    1.06    1.07</time>
   <energy>
    <i name="alphaZ">    282.10255570 </i>
    <i name="ewald"> 132112.01850159 </i>
    <i name="hartreedc">-151399.40385150 </i>
    <i name="XCdc">    301.58457282 </i>
    <i name="pawpsdc">  20464.15856742 </i>
    <i name="pawaedc"> -20967.66658385 </i>
    <i name="eentropy">     -0.05628478 </i>
    <i name="bandstr">   -838.46469776 </i>
    <i name="atom">  19992.63735369 </i>
    <i name="e_fr_energy">    -53.08986667 </i>
    <i name="e_wo_entrp">    -53.03358190 </i>
    <i name="e_0_energy">    -53.06172428 </i>
   </energy>
  </scstep>
  <structure>
   <crystal>
    <varray name="basis" >
     <v>       5.44472222       0.00000000       0.00000000 </v>
     <v>       2.72236111       4.71526775       0.00000000 </v>
     <v>       0.00000000       0.00000000      30.66839561 </v>
    </varray>
    <i name="volume">    787.35962928 </i>
    <varray name="rec_basis" >
     <v>       0.18366410      -0.10603852       0.00000000 </v>
     <v>       0.00000000       0.21207703       0.00000000 </v>
     <v>       0.00000000       0.00000000       0.03260686 </v>
    </varray>
   </crystal>
   <varray name="positions" >
    <v>       0.00000000       0.00000000       0.39128229 </v>
    <v>       0.50000000       0.00000000       0.39128229 </v>
    <v>       0.00000000       0.50000000       0.39128229 </v>
    <v>       0.50000000       0.50000000       0.39128229 </v>
    <v>       0.16666667       0.16666667       0.46376076 </v>
    <v>       0.66666667       0.16666667       0.46376076 </v>
    <v>       0.16666667       0.66666667       0.46376076 </v>
    <v>       0.66666667       0.66666667       0.46376076 </v>
    <v>       0.83333333       0.33333333       0.53623924 </v>
    <v>       0.33333333       0.33333333       0.53623924 </v>
    <v>       0.83333333       0.83333333       0.53623924 </v>
    <v>       0.33333333       0.83333333       0.53623924 </v>
    <v>       0.00000000       0.00000000       0.60871771 </v>
    <v>       0.50000000       0.00000000       0.60871771 </v>
    <v>       0.00000000       0.50000000       0.60871771 </v>
    <v>       0.50000000       0.50000000       0.60871771 </v>
    <v>       0.16666667       0.16666667       0.66741006 </v>
    <v>       0.16666667       0.16666667       0.70425580 </v>
   </varray>
  </structure>
  <varray name="forces" >
   <v>       0.21199988      -0.05925748       0.16520074 </v>
   <v>      -0.30500178       0.17606122      -1.11049854 </v>
   <v>       0.15729441      -0.15401852       0.16522305 </v>
   <v>      -0.26537559       0.15318252      -1.13168298 </v>
   <v>      -0.29777826       0.17191752      -0.07658714 </v>
   <v>       0.50846277      -0.28174651       0.50965391 </v>
   <v>      -0.28945237       0.16711483      -0.13178196 </v>
   <v>       0.49820504      -0.29950453       0.50968251 </v>
   <v>       0.32237933      -0.18617272       0.11212549 </v>
   <v>      -0.53211782       0.27859907      -0.56968041 </v>
   <v>       0.28400620      -0.16402982       0.30848969 </v>
   <v>      -0.50735093       0.32148241      -0.56967701 </v>
   <v>      -0.08215797       0.12608053       0.15230620 </v>
   <v>       0.47905723      -0.27659226       1.09761305 </v>
   <v>      -0.15026958       0.00804524       0.15225107 </v>
   <v>       0.26734651      -0.15439591       0.92431474 </v>
   <v>      -0.31116181       0.17965285      -4.91555331 </v>
   <v>       0.01191473      -0.00641845       4.40860090 </v>
  </varray>
  <varray name="stress" >
   <v>      20.23805045       3.97429039      -0.19548416 </v>
   <v>       3.97429013      24.80049409       0.11302407 </v>
   <v>      -0.19548381       0.11302396      30.49451621 </v>
  </varray>
  <energy>
   <i name="e_fr_energy">    -53.08986667 </i>
   <i name="e_wo_entrp">    -53.03358190 </i>
   <i name="e_0_energy">    -53.06172428 </i>
  </energy>
  <time name="totalsc">   58.51   58.64</time>
 </calculation>
 <calculation>
  <scstep>
   <time name="dav">    1.39    1.40</time>
   <time name="total">    1.55    1.56</time>
   <energy>
    <i name="alphaZ">    282.10255570 </i>
    <i name="ewald"> 131603.65638915 </i>
    <i name="hartreedc">-150914.00973782 </i>
    <i name="XCdc">    300.31360644 </i>
    <i name="pawpsdc">  20464.15552912 </i>
    <i name="pawaedc"> -20967.66376222 </i>
    <i name="eentropy">     -0.03651390 </i>
    <i name="bandstr">   -811.38337759 </i>
    <i name="atom">  19992.63735369 </i>
    <i name="e_fr_energy">    -50.22795743 </i>
    <i name="e_wo_entrp">    -50.19144353 </i>
    <i name="e_0_energy">    -50.20970048 </i>
   </energy>
  </scstep>
  <scstep>
   <time name="dav">    2.15    2.16</time>
   <time name="total">    2.31    2.31</time>
   <energy>
    <i name="e_fr_energy">    -54.35704403 </i>
    <i name="e_wo_entrp">    -54.33850217 </i>
    <i name="e_0_energy">    -54.34777310 </i>
   </energy>
  </scstep>
  <scstep>
   <time name="dav">    2.04    2.05</time>
   <time name="total">    2.20    2.20</time>
   <energy>
    <i name="e_fr_energy">    -50.59917005 </i>
    <i name="e_wo_entrp">    -50.55806124 </i>
    <i name="e_0_energy">    -50.57861565 </i>
   </energy>
  </scstep>
  <scstep>
   <time name="dav">    2.16    2.16</time>
   <time name="total">    2.31    2.32</time>
   <energy>
    <i name="e_fr_energy">    -50.45373243 </i>
    <i name="e_wo_entrp">    -50.40457525 </i>
    <i name="e_0_energy">    -50.42915384 </i>
   </energy>
  </scstep>
  <scstep>
   <time name="dav">    1.91    1.91</time>
   <time name="total">    2.06    2.07</time>
   <energy>
    <i name="e_fr_energy">    -50.42679391 </i>
    <i name="e_wo_entrp">    -50.37589425 </i>
    <i name="e_0_energy">    -50.40134408 </i>
   </energy>
  </scstep>
  <scstep>
   <time name="dav">    1.82    1.82</time>
   <time name="total">    1.97    1.98</time>
   <energy>
    <i name="e_fr_energy">    -50.41199372 </i>
    <i name="e_wo_entrp">    -50.36078323 </i>
    <i name="e_0_energy">    -50.38638848 </i>
   </energy>
  </scstep>
  <scstep>
   <time name="dav">    1.99    1.99</time>
   <time name="total">    2.14    2.15</time>
   <energy>
    <i name="e_fr_energy">    -50.40893033 </i>
    <i name="e_wo_entrp">    -50.35818567 </i>
    <i name="e_0_energy">    -50.38355800 </i>
   </energy>
  </scstep>
  <scstep>
   <time name="dav">    1.91    1.91</time>
   <time name="total">    2.06    2.07</time>
   <energy>
    <i name="e_fr_energy">    -50.41309173 </i>
    <i name="e_wo_entrp">    -50.36217057 </i>
    <i name="e_0_energy">    -50.38763115 </i>
   </energy>
  </scstep>
  <scstep>
   <time name="dav">    1.81    1.81</time>
   <time name="total">    1.96    1.97</time>
   <energy>
    <i name="e_fr_energy">    -50.41433674 </i>
    <i name="e_wo_entrp">    -50.36334942 </i>
    <i name="e_0_energy">    -50.38884308 </i>
   </energy>
  </scstep>
  <scstep>
   <time name="dav">    1.87    1.87</time>
   <time name="total">    2.02    2.03</time>
   <energy>
    <i name="e_fr_energy">    -50.41592049 </i>
    <i name="e_wo_entrp">    -50.36455717 </i>
    <i name="e_0_energy">    -50.39023883 </i>
   </energy>
  </scstep>
  <scstep>
   <time name="dav">    1.96    1.96</time>
   <time name="total">    2.12    2.13</time>
   <energy>
    <i name="e_fr_energy">    -50.41665081 </i>
    <i name="e_wo_entrp">    -50.36568532 </i>
    <i name="e_0_energy">    -50.39116806 </i>
   </energy>
  </scstep>
  <scstep>
   <time name="dav">    1.90    1.91</time>
   <time name="total">    2.06    2.07</time>
   <energy>
    <i name="e_fr_energy">    -50.41757003 </i>
    <i name="e_wo_entrp">    -50.36658265 </i>
    <i name="e_0_energy">    -50.39207634 </i>
   </energy>
  </scstep>
  <scstep>
   <time name="dav">    1.92    1.93</time>
   <time name="total">    2.08    2.09</time>
   <energy>
    <i name="e_fr_energy">    -50.41843370 </i>
    <i name="e_wo_entrp">    -50.36746634 </i>
    <i name="e_0_energy">    -50.39295002 </i>
   </energy>
  </scstep>
  <scstep>
   <time name="dav">    1.82    1.82</time>
   <time name="total">    1.98    1.98</time>
   <energy>
    <i name="e_fr_energy">    -50.41907444 </i>
    <i name="e_wo_entrp">    -50.36804951 </i>
    <i name="e_0_energy">    -50.39356198 </i>
   </energy>
  </scstep>
  <scstep>
   <time name="dav">    1.76    1.76</time>
   <time name="total">    1.91    1.92</time>
   <energy>
    <i name="e_fr_energy">    -50.41952074 </i>
    <i name="e_wo_entrp">    -50.36853484 </i>
    <i name="e_0_energy">    -50.39402779 </i>
   </energy>
  </scstep>
  <scstep>
   <time name="dav">    1.84    1.85</time>
   <time name="total">    2.00    2.00</time>
   <energy>
    <i name="e_fr_energy">    -50.41972003 </i>
    <i name="e_wo_entrp">    -50.36871854 </i>
    <i name="e_0_energy">    -50.39421928 </i>
   </energy>
  </scstep>
  <scstep>
   <time name="dav">    1.71    1.72</time>
   <time name="total">    1.87    1.88</time>
   <energy>
    <i name="e_fr_energy">    -50.41987423 </i>
    <i name="e_wo_entrp">    -50.36888312 </i>
    <i name="e_0_energy">    -50.39437868 </i>
   </energy>
  </scstep>
  <scstep>
   <time name="dav">    1.66    1.67</time>
   <time name="total">    1.82    1.82</time>
   <energy>
    <i name="e_fr_energy">    -50.41994135 </i>
    <i name="e_wo_entrp">    -50.36894471 </i>
    <i name="e_0_energy">    -50.39444303 </i>
   </energy>
  </scstep>
  <scstep>
   <time name="dav">    1.72    1.72</time>
   <time name="total">    1.88    1.88</time>
   <energy>
    <i name="e_fr_energy">    -50.42002839 </i>
    <i name="e_wo_entrp">    -50.36902854 </i>
    <i name="e_0_energy">    -50.39452847 </i>
   </energy>
  </scstep>
  <scstep>
   <time name="dav">    1.17    1.18</time>
   <time name="total">    1.33    1.34</time>
   <energy>
    <i name="e_fr_energy">    -50.42005203 </i>
    <i name="e_wo_entrp">    -50.36905511 </i>
    <i name="e_0_energy">    -50.39455357 </i>
   </energy>
  </scstep>
  <scstep>
   <time name="dav">    1.18    1.18</time>
   <time name="total">    1.35    1.35</time>
   <energy>
    <i name="e_fr_energy">    -50.42007901 </i>
    <i name="e_wo_entrp">    -50.36908080 </i>
    <i name="e_0_energy">    -50.39457990 </i>
   </energy>
  </scstep>
  <scstep>
   <time name="dav">    1.13    1.13</time>
   <time name="total">    1.29    1.30</time>
   <energy>
    <i name="e_fr_energy">    -50.42008751 </i>
    <i name="e_wo_entrp">    -50.36908950 </i>
    <i name="e_0_energy">    -50.39458851 </i>
   </energy>
  </scstep>
  <scstep>
   <time name="dav">    1.06    1.06</time>
   <time name="total">    1.22    1.22</time>
   <energy>
    <i name="e_fr_energy">    -50.42009109 </i>
    <i name="e_wo_entrp">    -50.36909401 </i>
    <i name="e_0_energy">    -50.39459255 </i>
   </energy>
  </scstep>
  <scstep>
   <time name="dav">    1.02    1.02</time>
   <time name="total">    1.18    1.18</time>
   <energy>
    <i name="e_fr_energy">    -50.42009623 </i>
    <i name="e_wo_entrp">    -50.36909903 </i>
    <i name="e_0_energy">    -50.39459763 </i>
   </energy>
  </scstep>
  <scstep>
   <time name="dav">    1.03    1.03</time>
   <time name="total">    1.19    1.20</time>
   <energy>
    <i name="e_fr_energy">    -50.42009806 </i>
    <i name="e_wo_entrp">    -50.36910073 </i>
    <i name="e_0_energy">    -50.39459939 </i>
   </energy>
  </scstep>
  <scstep>
   <time name="dav">    1.01    1.01</time>
   <time name="total">    1.18    1.18</time>
   <energy>
    <i name="e_fr_energy">    -50.42009946 </i>
    <i name="e_wo_entrp">    -50.36910213 </i>
    <i name="e_0_energy">    -50.39460079 </i>
   </energy>
  </scstep>
  <scstep>
   <time name="dav">    1.03    1.03</time>
   <time name="total">    1.19    1.19</time>
   <energy>
    <i name="e_fr_energy">    -50.42010084 </i>
    <i name="e_wo_entrp">    -50.36910358 </i>
    <i name="e_0_energy">    -50.39460221 </i>
   </energy>
  </scstep>
  <scstep>
   <time name="dav">    1.04    1.04</time>
   <time name="total">    1.21    1.23</time>
   <energy>
    <i name="e_fr_energy">    -50.42010194 </i>
    <i name="e_wo_entrp">    -50.36910462 </i>
    <i name="e_0_energy">    -50.39460328 </i>
   </energy>
  </scstep>
  <scstep>
   <time name="dav">    1.00    1.00</time>
   <time name="total">    1.03    1.03</time>
   <energy>
    <i name="alphaZ">    282.10255570 </i>
    <i name="ewald"> 131603.65638915 </i>
    <i name="hartreedc">-150769.78275962 </i>
    <i name="XCdc">    299.47586655 </i>
    <i name="pawpsdc">  20104.85020333 </i>
    <i name="pawaedc"> -20608.11553501 </i>
    <i name="eentropy">     -0.05099745 </i>
    <i name="bandstr">   -955.19317873 </i>
    <i name="atom">  19992.63735369 </i>
    <i name="e_fr_energy">    -50.42010238 </i>
    <i name="e_wo_entrp">    -50.36910493 </i>
    <i name="e_0_energy">    -50.39460365 </i>
   </energy>
  </scstep>
  <structure>
   <crystal>
    <varray name="basis" >
     <v>       5.44472222       0.00000000       0.00000000 </v>
     <v>       2.72236111       4.71526775       0.00000000 </v>
     <v>       0.00000000       0.00000000      30.66839561 </v>
    </varray>
    <i name="volume">    787.35962928 </i>
    <varray name="rec_basis" >
     <v>       0.18366410      -0.10603852       0.00000000 </v>
     <v>       0.00000000       0.21207703       0.00000000 </v>
     <v>       0.00000000       0.00000000       0.03260686 </v>
    </varray>
   </crystal>
   <varray name="positions" >
    <v>       0.00000000       0.00000000       0.39128229 </v>
    <v>       0.50000000       0.00000000       0.39128229 </v>
    <v>       0.00000000       0.50000000       0.39128229 </v>
    <v>       0.50000000       0.50000000       0.39128229 </v>
    <v>       0.16666667       0.16666667       0.46376076 </v>
    <v>       0.66666667       0.16666667       0.46376076 </v>
    <v>       0.16666667       0.66666667       0.46376076 </v>
    <v>       0.66666667       0.66666667       0.46376076 </v>
    <v>       0.83714214       0.33142857       0.53641562 </v>
    <v>       0.32719334       0.33618372       0.53534311 </v>
    <v>       0.83668886       0.83165512       0.53672450 </v>
    <v>       0.32719341       0.83662247       0.53534311 </v>
    <v>       0.99862707       0.00128995       0.60895730 </v>
    <v>       0.50565959       0.99717014       0.61044430 </v>
    <v>       0.99862739       0.50008231       0.60895721 </v>
    <v>       0.50315863       0.49842035       0.61017170 </v>
    <v>       0.16299061       0.16850472       0.65967769 </v>
    <v>       0.16680507       0.16660100       0.71119072 </v>
   </varray>
  </structure>
  <varray name="forces" >
   <v>       0.18478998      -0.07637835       0.16526661 </v>
   <v>      -0.28374703       0.16378932      -1.12142481 </v>
   <v>       0.15848865      -0.12192696       0.16529442 </v>
   <v>      -0.26239059       0.15145781      -1.12866924 </v>
   <v>      -0.31123430       0.17967732      -0.15653065 </v>
   <v>       0.52990149      -0.29895247       0.50350197 </v>
   <v>      -0.32044013       0.18499373      -0.26105260 </v>
   <v>       0.52381774      -0.30948550       0.50355263 </v>
   <v>       0.01725996      -0.01002289       0.11044207 </v>
   <v>      -0.16850508       0.12424552      -0.08048785 </v>
   <v>       0.05311975      -0.03075135       0.37107640 </v>
   <v>      -0.19185403       0.08382043      -0.08047924 </v>
   <v>       0.27497454       0.17818128       0.50843744 </v>
   <v>       0.31994627      -0.18481875       0.82165643 </v>
   <v>      -0.01691961      -0.32726321       0.50841366 </v>
   <v>       0.07714986      -0.04457393       0.67321247 </v>
   <v>      -0.49817366       0.28775968       8.03143936 </v>
   <v>      -0.08618382       0.05024833      -9.53364908 </v>
  </varray>
  <varray name="stress" >
   <v>      19.99049754       2.89390734      -1.81048292 </v>
   <v>       2.89390750      23.30256898       1.04489322 </v>
   <v>      -1.81048278       1.04489329     -16.51296944 </v>
  </varray>
  <energy>
   <i name="e_fr_energy">    -50.42010238 </i>
   <i name="e_wo_entrp">    -50.36910493 </i>
   <i name="e_0_energy">    -50.39460365 </i>
  </energy>
  <time name="totalsc">   53.07   53.22</time>
 </calculation>
 <calculation>
  <scstep>
   <time name="dav">    1.40    1.40</time>
   <time name="total">    1.55    1.56</time>
   <energy>
    <i name="alphaZ">    282.10255570 </i>
    <i name="ewald"> 131910.85854237 </i>
    <i name="hartreedc">-151066.39418791 </i>
    <i name="XCdc">    300.05463472 </i>
    <i name="pawpsdc">  20104.84976665 </i>
    <i name="pawaedc"> -20608.11511003 </i>
    <i name="eentropy">     -0.04762342 </i>
    <i name="bandstr">   -967.89024815 </i>
    <i name="atom">  19992.63735369 </i>
    <i name="e_fr_energy">    -51.94431637 </i>
    <i name="e_wo_entrp">    -51.89669295 </i>
    <i name="e_0_energy">    -51.92050466 </i>
   </energy>
  </scstep>
  <scstep>
   <time name="dav">    2.13    2.13</time>
   <time name="total">    2.28    2.29</time>
   <energy>
    <i name="e_fr_energy">    -53.41959987 </i>
    <i name="e_wo_entrp">    -53.38734330 </i>
    <i name="e_0_energy">    -53.40347159 </i>
   </energy>
  </scstep>
  <scstep>
   <time name="dav">    2.15    2.16</time>
   <time name="total">    2.31    2.31</time>
   <energy>
    <i name="e_fr_energy">    -53.05729253 </i>
    <i name="e_wo_entrp">    -53.01374879 </i>
    <i name="e_0_energy">    -53.03552066 </i>
   </energy>
  </scstep>
  <scstep>
   <time name="dav">    1.90    1.90</time>
   <time name="total">    2.05    2.06</time>
   <energy>
    <i name="e_fr_energy">    -52.83246172 </i>
    <i name="e_wo_entrp">    -52.78245699 </i>
    <i name="e_0_energy">    -52.80745935 </i>
   </energy>
  </scstep>
  <scstep>
   <time name="dav">    2.11    2.12</time>
   <time name="total">    2.27    2.27</time>
   <energy>
    <i name="e_fr_energy">    -52.78563414 </i>
    <i name="e_wo_entrp">    -52.73152590 </i>
    <i name="e_0_energy">    -52.75858002 </i>
   </energy>
  </scstep>
  <scstep>
   <time name="dav">    1.82    1.83</time>
   <time name="total">    1.98    1.98</time>
   <energy>
    <i name="e_fr_energy">    -52.76554570 </i>
    <i name="e_wo_entrp">    -52.71155522 </i>
    <i name="e_0_energy">    -52.73855046 </i>
   </energy>
  </scstep>
  <scstep>
   <time name="dav">    1.81    1.81</time>
   <time name="total">    1.96    1.97</time>
   <energy>
    <i name="e_fr_energy">    -52.75362098 </i>
    <i name="e_wo_entrp">    -52.69908947 </i>
    <i name="e_0_energy">    -52.72635523 </i>
   </energy>
  </scstep>
  <scstep>
   <time name="dav">    1.96    1.96</time>
   <time name="total">    2.11    2.12</time>
   <energy>
    <i name="e_fr_energy">    -52.75049160 </i>
    <i name="e_wo_entrp">    -52.69615026 </i>
    <i name="e_0_energy">    -52.72332093 </i>
   </energy>
  </scstep>
  <scstep>
   <time name="dav">    1.96    1.96</time>
   <time name="total">    2.12    2.13</time>
   <energy>
    <i name="e_fr_energy">    -52.75002715 </i>
    <i name="e_wo_entrp">    -52.69616479 </i>
    <i name="e_0_energy">    -52.72309597 </i>
   </energy>
  </scstep>
  <scstep>
   <time name="dav">    1.76    1.77</time>
   <time name="total">    1.92    1.92</time>
   <energy>
    <i name="e_fr_energy">    -52.74971805 </i>
    <i name="e_wo_entrp">    -52.69546107 </i>
    <i name="e_0_energy">    -52.72258956 </i>
   </energy>
  </scstep>
  <scstep>
   <time name="dav">    1.74    1.74</time>
   <time name="total">    1.89    1.90</time>
   <energy>
    <i name="e_fr_energy">    -52.74949508 </i>
    <i name="e_wo_entrp">    -52.69534595 </i>
    <i name="e_0_energy">    -52.72242052 </i>
   </energy>
  </scstep>
  <scstep>
   <time name="dav">    1.83    1.84</time>
   <time name="total">    1.99    1.99</time>
   <energy>
    <i name="e_fr_energy">    -52.74955569 </i>
    <i name="e_wo_entrp">    -52.69538310 </i>
    <i name="e_0_energy">    -52.72246940 </i>
   </energy>
  </scstep>
  <scstep>
   <time name="dav">    1.68    1.68</time>
   <time name="total">    1.83    1.84</time>
   <energy>
    <i name="e_fr_energy">    -52.74972759 </i>
    <i name="e_wo_entrp">    -52.69561197 </i>
    <i name="e_0_energy">    -52.72266978 </i>
   </energy>
  </scstep>
  <scstep>
   <time name="dav">    1.76    1.76</time>
   <time name="total">    1.92    1.92</time>
   <energy>
    <i name="e_fr_energy">    -52.74990386 </i>
    <i name="e_wo_entrp">    -52.69574518 </i>
    <i name="e_0_energy">    -52.72282452 </i>
   </energy>
  </scstep>
  <scstep>
   <time name="dav">    1.81    1.81</time>
   <time name="total">    1.97    1.97</time>
   <energy>
    <i name="e_fr_energy">    -52.75019638 </i>
    <i name="e_wo_entrp">    -52.69600952 </i>
    <i name="e_0_energy">    -52.72310295 </i>
   </energy>
  </scstep>
  <scstep>
   <time name="dav">    1.72    1.73</time>
   <time name="total">    1.88    1.89</time>
   <energy>
    <i name="e_fr_energy">    -52.75048992 </i>
    <i name="e_wo_entrp">    -52.69631587 </i>
    <i name="e_0_energy">    -52.72340289 </i>
   </energy>
  </scstep>
  <scstep>
   <time name="dav">    1.48    1.48</time>
   <time name="total">    1.64    1.64</time>
   <energy>
    <i name="e_fr_energy">    -52.75059388 </i>
    <i name="e_wo_entrp">    -52.69642110 </i>
    <i name="e_0_energy">    -52.72350749 </i>
   </energy>
  </scstep>
  <scstep>
   <time name="dav">    1.21    1.21</time>
   <time name="total">    1.36    1.37</time>
   <energy>
    <i name="e_fr_energy">    -52.75066890 </i>
    <i name="e_wo_entrp">    -52.69649416 </i>
    <i name="e_0_energy">    -52.72358153 </i>
   </energy>
  </scstep>
  <scstep>
   <time name="dav">    1.39    1.40</time>
   <time name="total">    1.55    1.56</time>
   <energy>
    <i name="e_fr_energy">    -52.75074423 </i>
    <i name="e_wo_entrp">    -52.69657044 </i>
    <i name="e_0_energy">    -52.72365734 </i>
   </energy>
  </scstep>
  <scstep>
   <time name="dav">    1.15    1.15</time>
   <time name="total">    1.31    1.31</time>
   <energy>
    <i name="e_fr_energy">    -52.75077925 </i>
    <i name="e_wo_entrp">    -52.69660344 </i>
    <i name="e_0_energy">    -52.72369135 </i>
   </energy>
  </scstep>
  <scstep>
   <time name="dav">    1.09    1.09</time>
   <time name="total">    1.25    1.25</time>
   <energy>
    <i name="e_fr_energy">    -52.75080310 </i>
    <i name="e_wo_entrp">    -52.69662812 </i>
    <i name="e_0_energy">    -52.72371561 </i>
   </energy>
  </scstep>
  <scstep>
   <time name="dav">    1.08    1.08</time>
   <time name="total">    1.24    1.24</time>
   <energy>
    <i name="e_fr_energy">    -52.75081092 </i>
    <i name="e_wo_entrp">    -52.69663629 </i>
    <i name="e_0_energy">    -52.72372360 </i>
   </energy>
  </scstep>
  <scstep>
   <time name="dav">    1.05    1.05</time>
   <time name="total">    1.21    1.22</time>
   <energy>
    <i name="e_fr_energy">    -52.75081984 </i>
    <i name="e_wo_entrp">    -52.69664508 </i>
    <i name="e_0_energy">    -52.72373246 </i>
   </energy>
  </scstep>
  <scstep>
   <time name="dav">    1.06    1.07</time>
   <time name="total">    1.23    1.23</time>
   <energy>
    <i name="e_fr_energy">    -52.75082200 </i>
    <i name="e_wo_entrp">    -52.69664692 </i>
    <i name="e_0_energy">    -52.72373446 </i>
   </energy>
  </scstep>
  <scstep>
   <time name="dav">    1.00    1.00</time>
   <time name="total">    1.16    1.17</time>
   <energy>
    <i name="e_fr_energy">    -52.75082418 </i>
    <i name="e_wo_entrp">    -52.69664904 </i>
    <i name="e_0_energy">    -52.72373661 </i>
   </energy>
  </scstep>
  <scstep>
   <time name="dav">    1.01    1.01</time>
   <time name="total">    1.18    1.18</time>
   <energy>
    <i name="e_fr_energy">    -52.75082557 </i>
    <i name="e_wo_entrp">    -52.69665059 </i>
    <i name="e_0_energy">    -52.72373808 </i>
   </energy>
  </scstep>
  <scstep>
   <time name="dav">    0.99    0.99</time>
   <time name="total">    1.01    1.01</time>
   <energy>
    <i name="alphaZ">    282.10255570 </i>
    <i name="ewald"> 131910.85854237 </i>
    <i name="hartreedc">-151144.83157448 </i>
    <i name="XCdc">    300.53652721 </i>
    <i name="pawpsdc">  20236.49419627 </i>
    <i name="pawaedc"> -20739.79104006 </i>
    <i name="eentropy">     -0.05417508 </i>
    <i name="bandstr">   -890.70321202 </i>
    <i name="atom">  19992.63735369 </i>
    <i name="e_fr_energy">    -52.75082639 </i>
    <i name="e_wo_entrp">    -52.69665131 </i>
    <i name="e_0_energy">    -52.72373885 </i>
   </energy>
  </scstep>
  <structure>
   <crystal>
    <varray name="basis" >
     <v>       5.44472222       0.00000000       0.00000000 </v>
     <v>       2.72236111       4.71526775       0.00000000 </v>
     <v>       0.00000000       0.00000000      30.66839561 </v>
    </varray>
    <i name="volume">    787.35962928 </i>
    <varray name="rec_basis" >
     <v>       0.18366410      -0.10603852       0.00000000 </v>
     <v>       0.00000000       0.21207703       0.00000000 </v>
     <v>       0.00000000       0.00000000       0.03260686 </v>
    </varray>
   </crystal>
   <varray name="positions" >
    <v>       0.00000000       0.00000000       0.39128229 </v>
    <v>       0.50000000       0.00000000       0.39128229 </v>
    <v>       0.00000000       0.50000000       0.39128229 </v>
    <v>       0.50000000       0.50000000       0.39128229 </v>
    <v>       0.16666667       0.16666667       0.46376076 </v>
    <v>       0.66666667       0.16666667       0.46376076 </v>
    <v>       0.16666667       0.66666667       0.46376076 </v>
    <v>       0.66666667       0.66666667       0.46376076 </v>
    <v>       0.83477412       0.33261281       0.53630596 </v>
    <v>       0.33101072       0.33441157       0.53590025 </v>
    <v>       0.83460265       0.83269850       0.53642280 </v>
    <v>       0.33101074       0.83457754       0.53590025 </v>
    <v>       0.99948065       0.00048796       0.60880834 </v>
    <v>       0.50214089       0.99892953       0.60937084 </v>
    <v>       0.99948077       0.50003114       0.60880831 </v>
    <v>       0.50119484       0.49940246       0.60926772 </v>
    <v>       0.16527610       0.16736196       0.66448508 </v>
    <v>       0.16671902       0.16664183       0.70687912 </v>
   </varray>
  </structure>
  <varray name="forces" >
   <v>       0.20215971      -0.06350034       0.16129638 </v>
   <v>      -0.29956763       0.17291201      -1.11780008 </v>
   <v>       0.15603182      -0.14340789       0.16131943 </v>
   <v>      -0.26585729       0.15344690      -1.13225520 </v>
   <v>      -0.30494563       0.17604134      -0.10872287 </v>
   <v>       0.51530757      -0.28721514       0.50348021 </v>
   <v>      -0.30145630       0.17402647      -0.18281372 </v>
   <v>       0.50635170      -0.30272750       0.50353839 </v>
   <v>       0.20659494      -0.11934220       0.11125618 </v>
   <v>      -0.38969799       0.21667586      -0.36561175 </v>
   <v>       0.19453708      -0.11238927       0.33670884 </v>
   <v>      -0.38251917       0.22911521      -0.36561023 </v>
   <v>       0.08237330       0.16401374       0.32506140 </v>
   <v>       0.37924080      -0.21901346       1.03770272 </v>
   <v>      -0.10090800      -0.15341917       0.32503852 </v>
   <v>       0.19131592      -0.11050125       0.80530706 </v>
   <v>      -0.36181101       0.20893711       6.51438557 </v>
   <v>      -0.02714981       0.01634758      -7.51228085 </v>
  </varray>
  <varray name="stress" >
   <v>      19.75051671       3.62643533      -0.76716756 </v>
   <v>       3.62643596      23.91063740       0.44293120 </v>
   <v>      -0.76716757       0.44293136      -2.53733353 </v>
  </varray>
  <energy>
   <i name="e_fr_energy">    -52.75082639 </i>
   <i name="e_wo_entrp">    -52.69665131 </i>
   <i name="e_0_energy">    -52.72373885 </i>
  </energy>
  <time name="totalsc">   48.77   48.89</time>
 </calculation>
 <calculation>
  <scstep>
   <time name="dav">    1.40    1.40</time>
   <time name="total">    1.55    1.56</time>
   <energy>
    <i name="alphaZ">    282.10255570 </i>
    <i name="ewald"> 132022.11599284 </i>
    <i name="hartreedc">-151249.11878447 </i>
    <i name="XCdc">    300.84777883 </i>
    <i name="pawpsdc">  20236.49672265 </i>
    <i name="pawaedc"> -20739.79352522 </i>
    <i name="eentropy">     -0.05493936 </i>
    <i name="bandstr">   -898.34524661 </i>
    <i name="atom">  19992.63735369 </i>
    <i name="e_fr_energy">    -53.11209194 </i>
    <i name="e_wo_entrp">    -53.05715258 </i>
    <i name="e_0_energy">    -53.08462226 </i>
   </energy>
  </scstep>
  <scstep>
   <time name="dav">    2.07    2.07</time>
   <time name="total">    2.22    2.23</time>
   <energy>
    <i name="e_fr_energy">    -53.26431580 </i>
    <i name="e_wo_entrp">    -53.21539910 </i>
    <i name="e_0_energy">    -53.23985745 </i>
   </energy>
  </scstep>
  <scstep>
   <time name="dav">    2.04    2.05</time>
   <time name="total">    2.20    2.20</time>
   <energy>
    <i name="e_fr_energy">    -53.24622435 </i>
    <i name="e_wo_entrp">    -53.19001991 </i>
    <i name="e_0_energy">    -53.21812213 </i>
   </energy>
  </scstep>
  <scstep>
   <time name="dav">    1.85    1.85</time>
   <time name="total">    2.00    2.01</time>
   <energy>
    <i name="e_fr_energy">    -53.20033600 </i>
    <i name="e_wo_entrp">    -53.14646478 </i>
    <i name="e_0_energy">    -53.17340039 </i>
   </energy>
  </scstep>
  <scstep>
   <time name="dav">    1.90    1.90</time>
   <time name="total">    2.06    2.07</time>
   <energy>
    <i name="e_fr_energy">    -53.18887726 </i>
    <i name="e_wo_entrp">    -53.13353044 </i>
    <i name="e_0_energy">    -53.16120385 </i>
   </energy>
  </scstep>
  <scstep>
   <time name="dav">    1.83    1.84</time>
   <time name="total">    1.99    1.99</time>
   <energy>
    <i name="e_fr_energy">    -53.18648219 </i>
    <i name="e_wo_entrp">    -53.13109126 </i>
    <i name="e_0_energy">    -53.15878672 </i>
   </energy>
  </scstep>
  <scstep>
   <time name="dav">    1.84    1.84</time>
   <time name="total">    1.99    2.00</time>
   <energy>
    <i name="e_fr_energy">    -53.18584735 </i>
    <i name="e_wo_entrp">    -53.13040852 </i>
    <i name="e_0_energy">    -53.15812793 </i>
   </energy>
  </scstep>
  <scstep>
   <time name="dav">    1.93    1.93</time>
   <time name="total">    2.08    2.09</time>
   <energy>
    <i name="e_fr_energy">    -53.18573866 </i>
    <i name="e_wo_entrp">    -53.13033228 </i>
    <i name="e_0_energy">    -53.15803547 </i>
   </energy>
  </scstep>
  <scstep>
   <time name="dav">    1.77    1.78</time>
   <time name="total">    1.93    1.93</time>
   <energy>
    <i name="e_fr_energy">    -53.18576367 </i>
    <i name="e_wo_entrp">    -53.13051027 </i>
    <i name="e_0_energy">    -53.15813697 </i>
   </energy>
  </scstep>
  <scstep>
   <time name="dav">    1.76    1.76</time>
   <time name="total">    1.91    1.92</time>
   <energy>
    <i name="e_fr_energy">    -53.18581072 </i>
    <i name="e_wo_entrp">    -53.13046612 </i>
    <i name="e_0_energy">    -53.15813842 </i>
   </energy>
  </scstep>
  <scstep>
   <time name="dav">    1.90    1.91</time>
   <time name="total">    2.06    2.06</time>
   <energy>
    <i name="e_fr_energy">    -53.18591432 </i>
    <i name="e_wo_entrp">    -53.13055753 </i>
    <i name="e_0_energy">    -53.15823593 </i>
   </energy>
  </scstep>
  <scstep>
   <time name="dav">    1.92    1.92</time>
   <time name="total">    2.07    2.08</time>
   <energy>
    <i name="e_fr_energy">    -53.18601807 </i>
    <i name="e_wo_entrp">    -53.13064556 </i>
    <i name="e_0_energy">    -53.15833181 </i>
   </energy>
  </scstep>
  <scstep>
   <time name="dav">    1.63    1.64</time>
   <time name="total">    1.79    1.79</time>
   <energy>
    <i name="e_fr_energy">    -53.18615823 </i>
    <i name="e_wo_entrp">    -53.13080768 </i>
    <i name="e_0_energy">    -53.15848296 </i>
   </energy>
  </scstep>
  <scstep>
   <time name="dav">    1.56    1.56</time>
   <time name="total">    1.71    1.72</time>
   <energy>
    <i name="e_fr_energy">    -53.18625504 </i>
    <i name="e_wo_entrp">    -53.13087970 </i>
    <i name="e_0_energy">    -53.15856737 </i>
   </energy>
  </scstep>
  <scstep>
   <time name="dav">    1.44    1.44</time>
   <time name="total">    1.60    1.60</time>
   <energy>
    <i name="e_fr_energy">    -53.18638198 </i>
    <i name="e_wo_entrp">    -53.13101059 </i>
    <i name="e_0_energy">    -53.15869629 </i>
   </energy>
  </scstep>
  <scstep>
   <time name="dav">    1.30    1.31</time>
   <time name="total">    1.46    1.46</time>
   <energy>
    <i name="e_fr_energy">    -53.18645338 </i>
    <i name="e_wo_entrp">    -53.13107849 </i>
    <i name="e_0_energy">    -53.15876594 </i>
   </energy>
  </scstep>
  <scstep>
   <time name="dav">    1.18    1.18</time>
   <time name="total">    1.34    1.34</time>
   <energy>
    <i name="e_fr_energy">    -53.18648562 </i>
    <i name="e_wo_entrp">    -53.13111343 </i>
    <i name="e_0_energy">    -53.15879953 </i>
   </energy>
  </scstep>
  <scstep>
   <time name="dav">    1.14    1.14</time>
   <time name="total">    1.30    1.30</time>
   <energy>
    <i name="e_fr_energy">    -53.18652105 </i>
    <i name="e_wo_entrp">    -53.13115102 </i>
    <i name="e_0_energy">    -53.15883604 </i>
   </energy>
  </scstep>
  <scstep>
   <time name="dav">    1.13    1.13</time>
   <time name="total">    1.29    1.29</time>
   <energy>
    <i name="e_fr_energy">    -53.18653770 </i>
    <i name="e_wo_entrp">    -53.13116643 </i>
    <i name="e_0_energy">    -53.15885206 </i>
   </energy>
  </scstep>
  <scstep>
   <time name="dav">    1.06    1.07</time>
   <time name="total">    1.23    1.23</time>
   <energy>
    <i name="e_fr_energy">    -53.18654712 </i>
    <i name="e_wo_entrp">    -53.13117468 </i>
    <i name="e_0_energy">    -53.15886090 </i>
   </energy>
  </scstep>
  <scstep>
   <time name="dav">    1.05    1.05</time>
   <time name="total">    1.21    1.21</time>
   <energy>
    <i name="e_fr_energy">    -53.18655208 </i>
    <i name="e_wo_entrp">    -53.13118008 </i>
    <i name="e_0_energy">    -53.15886608 </i>
   </energy>
  </scstep>
  <scstep>
   <time name="dav">    1.03    1.04</time>
   <time name="total">    1.20    1.20</time>
   <energy>
    <i name="e_fr_energy">    -53.18655436 </i>
    <i name="e_wo_entrp">    -53.13118257 </i>
    <i name="e_0_energy">    -53.15886847 </i>
   </energy>
  </scstep>
  <scstep>
   <time name="dav">    1.01    1.02</time>
   <time name="total">    1.18    1.18</time>
   <energy>
    <i name="e_fr_energy">    -53.18655647 </i>
    <i name="e_wo_entrp">    -53.13118452 </i>
    <i name="e_0_energy">    -53.15887049 </i>
   </energy>
  </scstep>
  <scstep>
   <time name="dav">    1.04    1.04</time>
   <time name="total">    1.06    1.06</time>
   <energy>
    <i name="alphaZ">    282.10255570 </i>
    <i name="ewald"> 132022.11599284 </i>
    <i name="hartreedc">-151285.58790874 </i>
    <i name="XCdc">    301.07879933 </i>
    <i name="pawpsdc">  20343.52342084 </i>
    <i name="pawaedc"> -20846.91822084 </i>
    <i name="eentropy">     -0.05537182 </i>
    <i name="bandstr">   -862.08317825 </i>
    <i name="atom">  19992.63735369 </i>
    <i name="e_fr_energy">    -53.18655722 </i>
    <i name="e_wo_entrp">    -53.13118540 </i>
    <i name="e_0_energy">    -53.15887131 </i>
   </energy>
  </scstep>
  <structure>
   <crystal>
    <varray name="basis" >
     <v>       5.44472222       0.00000000       0.00000000 </v>
     <v>       2.72236111       4.71526775       0.00000000 </v>
     <v>       0.00000000       0.00000000      30.66839561 </v>
    </varray>
    <i name="volume">    787.35962928 </i>
    <varray name="rec_basis" >
     <v>       0.18366410      -0.10603852       0.00000000 </v>
     <v>       0.00000000       0.21207703       0.00000000 </v>
     <v>       0.00000000       0.00000000       0.03260686 </v>
    </varray>
   </crystal>
   <varray name="positions" >
    <v>       0.00000000       0.00000000       0.39128229 </v>
    <v>       0.50000000       0.00000000       0.39128229 </v>
    <v>       0.00000000       0.50000000       0.39128229 </v>
    <v>       0.50000000       0.50000000       0.39128229 </v>
    <v>       0.16666667       0.16666667       0.46376076 </v>
    <v>       0.66666667       0.16666667       0.46376076 </v>
    <v>       0.16666667       0.66666667       0.46376076 </v>
    <v>       0.66666667       0.66666667       0.46376076 </v>
    <v>       0.83396529       0.33301729       0.53626850 </v>
    <v>       0.33231458       0.33380627       0.53609055 </v>
    <v>       0.83389008       0.83305488       0.53631975 </v>
    <v>       0.33231460       0.83387907       0.53609055 </v>
    <v>       0.99977220       0.00021403       0.60875746 </v>
    <v>       0.50093904       0.99953047       0.60900419 </v>
    <v>       0.99977226       0.50001366       0.60875745 </v>
    <v>       0.50052408       0.49973790       0.60895896 </v>
    <v>       0.16605673       0.16697164       0.66612710 </v>
    <v>       0.16668963       0.16665577       0.70540645 </v>
   </varray>
  </structure>
  <varray name="forces" >
   <v>       0.20840838      -0.06094230       0.16390726 </v>
   <v>      -0.30264581       0.17469771      -1.11308233 </v>
   <v>       0.15695501      -0.15008221       0.16393482 </v>
   <v>      -0.26533982       0.15315948      -1.13109809 </v>
   <v>      -0.30074903       0.17363078      -0.08980858 </v>
   <v>       0.51172281      -0.28423495       0.50751528 </v>
   <v>      -0.29420084       0.16984746      -0.15325353 </v>
   <v>       0.50198933      -0.30109375       0.50755098 </v>
   <v>       0.27266892      -0.15747943       0.11270081 </v>
   <v>      -0.46682267       0.25405803      -0.48634561 </v>
   <v>       0.24508341      -0.14155868       0.32184281 </v>
   <v>      -0.45345296       0.27721585      -0.48634230 </v>
   <v>      -0.00617023       0.14455880       0.23354751 </v>
   <v>       0.42332376      -0.24443723       1.07874618 </v>
   <v>      -0.12830015      -0.06701181       0.23350803 </v>
   <v>       0.23286533      -0.13448100       0.87297899 </v>
   <v>      -0.33897936       0.19571762       2.00198275 </v>
   <v>       0.00364389      -0.00156437      -2.73828498 </v>
  </varray>
  <varray name="stress" >
   <v>      19.95158218       3.82056487      -0.40205181 </v>
   <v>       3.82056483      24.33660349       0.23218179 </v>
   <v>      -0.40205182       0.23218148      12.27013724 </v>
  </varray>
  <energy>
   <i name="e_fr_energy">    -53.18655722 </i>
   <i name="e_wo_entrp">    -53.13118540 </i>
   <i name="e_0_energy">    -53.15887131 </i>
  </energy>
  <time name="totalsc">   43.00   43.10</time>
 </calculation>
 <calculation>
  <scstep>
   <time name="dav">    1.40    1.41</time>
   <time name="total">    1.56    1.56</time>
   <energy>
    <i name="alphaZ">    282.10255570 </i>
    <i name="ewald"> 132046.16039856 </i>
    <i name="hartreedc">-151307.85150259 </i>
    <i name="XCdc">    301.15354088 </i>
    <i name="pawpsdc">  20343.52297920 </i>
    <i name="pawaedc"> -20846.91775633 </i>
    <i name="eentropy">     -0.05566785 </i>
    <i name="bandstr">   -863.95988493 </i>
    <i name="atom">  19992.63735369 </i>
    <i name="e_fr_energy">    -53.20798365 </i>
    <i name="e_wo_entrp">    -53.15231580 </i>
    <i name="e_0_energy">    -53.18014973 </i>
   </energy>
  </scstep>
  <scstep>
   <time name="dav">    2.00    2.00</time>
   <time name="total">    2.15    2.16</time>
   <energy>
    <i name="e_fr_energy">    -53.21288997 </i>
    <i name="e_wo_entrp">    -53.15802704 </i>
    <i name="e_0_energy">    -53.18545851 </i>
   </energy>
  </scstep>
  <scstep>
   <time name="dav">    1.90    1.90</time>
   <time name="total">    2.05    2.06</time>
   <energy>
    <i name="e_fr_energy">    -53.21354487 </i>
    <i name="e_wo_entrp">    -53.15716782 </i>
    <i name="e_0_energy">    -53.18535634 </i>
   </energy>
  </scstep>
  <scstep>
   <time name="dav">    1.86    1.87</time>
   <time name="total">    2.02    2.03</time>
   <energy>
    <i name="e_fr_energy">    -53.21045908 </i>
    <i name="e_wo_entrp">    -53.15509844 </i>
    <i name="e_0_energy">    -53.18277876 </i>
   </energy>
  </scstep>
  <scstep>
   <time name="dav">    1.83    1.84</time>
   <time name="total">    1.99    1.99</time>
   <energy>
    <i name="e_fr_energy">    -53.20991810 </i>
    <i name="e_wo_entrp">    -53.15428749 </i>
    <i name="e_0_energy">    -53.18210279 </i>
   </energy>
  </scstep>
  <scstep>
   <time name="dav">    1.94    1.95</time>
   <time name="total">    2.10    2.10</time>
   <energy>
    <i name="e_fr_energy">    -53.20987226 </i>
    <i name="e_wo_entrp">    -53.15421575 </i>
    <i name="e_0_energy">    -53.18204400 </i>
   </energy>
  </scstep>
  <scstep>
   <time name="dav">    1.77    1.78</time>
   <time name="total">    1.93    1.93</time>
   <energy>
    <i name="e_fr_energy">    -53.20986402 </i>
    <i name="e_wo_entrp">    -53.15421980 </i>
    <i name="e_0_energy">    -53.18204191 </i>
   </energy>
  </scstep>
  <scstep>
   <time name="dav">    1.82    1.82</time>
   <time name="total">    1.97    1.98</time>
   <energy>
    <i name="e_fr_energy">    -53.20987235 </i>
    <i name="e_wo_entrp">    -53.15424302 </i>
    <i name="e_0_energy">    -53.18205769 </i>
   </energy>
  </scstep>
  <scstep>
   <time name="dav">    1.70    1.70</time>
   <time name="total">    1.85    1.85</time>
   <energy>
    <i name="e_fr_energy">    -53.20989063 </i>
    <i name="e_wo_entrp">    -53.15428366 </i>
    <i name="e_0_energy">    -53.18208714 </i>
   </energy>
  </scstep>
  <scstep>
   <time name="dav">    1.38    1.38</time>
   <time name="total">    1.54    1.54</time>
   <energy>
    <i name="e_fr_energy">    -53.20990167 </i>
    <i name="e_wo_entrp">    -53.15428418 </i>
    <i name="e_0_energy">    -53.18209292 </i>
   </energy>
  </scstep>
  <scstep>
   <time name="dav">    1.13    1.13</time>
   <time name="total">    1.28    1.29</time>
   <energy>
    <i name="e_fr_energy">    -53.20991959 </i>
    <i name="e_wo_entrp">    -53.15429824 </i>
    <i name="e_0_energy">    -53.18210892 </i>
   </energy>
  </scstep>
  <scstep>
   <time name="dav">    1.18    1.18</time>
   <time name="total">    1.34    1.34</time>
   <energy>
    <i name="e_fr_energy">    -53.20993622 </i>
    <i name="e_wo_entrp">    -53.15431264 </i>
    <i name="e_0_energy">    -53.18212443 </i>
   </energy>
  </scstep>
  <scstep>
   <time name="dav">    1.11    1.12</time>
   <time name="total">    1.27    1.27</time>
   <energy>
    <i name="e_fr_energy">    -53.20994988 </i>
    <i name="e_wo_entrp">    -53.15432994 </i>
    <i name="e_0_energy">    -53.18213991 </i>
   </energy>
  </scstep>
  <scstep>
   <time name="dav">    1.11    1.11</time>
   <time name="total">    1.27    1.27</time>
   <energy>
    <i name="e_fr_energy">    -53.20996108 </i>
    <i name="e_wo_entrp">    -53.15433590 </i>
    <i name="e_0_energy">    -53.18214849 </i>
   </energy>
  </scstep>
  <scstep>
   <time name="dav">    1.10    1.10</time>
   <time name="total">    1.26    1.26</time>
   <energy>
    <i name="e_fr_energy">    -53.20997355 </i>
    <i name="e_wo_entrp">    -53.15435145 </i>
    <i name="e_0_energy">    -53.18216250 </i>
   </energy>
  </scstep>
  <scstep>
   <time name="dav">    1.10    1.10</time>
   <time name="total">    1.25    1.26</time>
   <energy>
    <i name="e_fr_energy">    -53.20997844 </i>
    <i name="e_wo_entrp">    -53.15435500 </i>
    <i name="e_0_energy">    -53.18216672 </i>
   </energy>
  </scstep>
  <scstep>
   <time name="dav">    1.04    1.04</time>
   <time name="total">    1.20    1.20</time>
   <energy>
    <i name="e_fr_energy">    -53.20998270 </i>
    <i name="e_wo_entrp">    -53.15435919 </i>
[...]
        <r>  0.0036  0.0078  0.0007  0.0130  0.0018  0.0005  0.0010  0.0005  0.0043 </r>
        <r>  0.0021  0.0018  0.0003  0.0091  0.0025  0.0004  0.0006  0.0002  0.0066 </r>
        <r>  0.0011  0.0074  0.0066  0.0145  0.0021  0.0013  0.0007  0.0009  0.0049 </r>
        <r>  0.0011  0.0002  0.0082  0.0008  0.0005  0.0020  0.0004  0.0005  0.0028 </r>
        <r>  0.0004  0.0050  0.0000  0.0016  0.0006  0.0001  0.0007  0.0008  0.0005 </r>
        <r>  0.0029  0.0024  0.0014  0.0026  0.0020  0.0035  0.0020  0.0016  0.0018 </r>
        <r>  0.0060  0.0011  0.0091  0.0028  0.0009  0.0016  0.0014  0.0010  0.0005 </r>
        <r>  0.0017  0.0237  0.0011  0.0143  0.0000  0.0000  0.0000  0.0000  0.0000 </r>
        <r>  0.0001  0.0085  0.0001  0.0059  0.0000  0.0000  0.0000  0.0000  0.0000 </r>
       </set>
       <set comment="band 102">
        <r>  0.0048  0.0004  0.0050  0.0006  0.0015  0.0036  0.0001  0.0057  0.0026 </r>
        <r>  0.0023  0.0016  0.0160  0.0013  0.0012  0.0030  0.0007  0.0059  0.0011 </r>
        <r>  0.0051  0.0004  0.0093  0.0032  0.0007  0.0059  0.0006  0.0031  0.0013 </r>
        <r>  0.0002  0.0018  0.0145  0.0050  0.0003  0.0016  0.0010  0.0032  0.0004 </r>
        <r>  0.0187  0.0002  0.0170  0.0014  0.0011  0.0027  0.0015  0.0010  0.0003 </r>
        <r>  0.0028  0.0024  0.0013  0.0027  0.0006  0.0029  0.0005  0.0045  0.0016 </r>
        <r>  0.0022  0.0001  0.0012  0.0027  0.0018  0.0009  0.0012  0.0056  0.0005 </r>
        <r>  0.0015  0.0034  0.0108  0.0019  0.0005  0.0037  0.0061  0.0019  0.0010 </r>
        <r>  0.0147  0.0025  0.0048  0.0025  0.0007  0.0029  0.0053  0.0006  0.0001 </r>
        <r>  0.0014  0.0012  0.0008  0.0039  0.0004  0.0005  0.0013  0.0016  0.0008 </r>
        <r>  0.0024  0.0005  0.0026  0.0017  0.0002  0.0022  0.0002  0.0055  0.0004 </r>
        <r>  0.0099  0.0035  0.0090  0.0010  0.0002  0.0009  0.0058  0.0015  0.0011 </r>
        <r>  0.0090  0.0005  0.0005  0.0005  0.0055  0.0026  0.0043  0.0039  0.0008 </r>
        <r>  0.0125  0.0124  0.0018  0.0019  0.0021  0.0002  0.0004  0.0026  0.0030 </r>
        <r>  0.0142  0.0007  0.0029  0.0023  0.0055  0.0015  0.0051  0.0023  0.0004 </r>
        <r>  0.0116  0.0128  0.0008  0.0072  0.0008  0.0001  0.0003  0.0016  0.0010 </r>
        <r>  0.0101  0.0566  0.0054  0.0394  0.0000  0.0000  0.0000  0.0000  0.0000 </r>
        <r>  0.0004  0.0255  0.0019  0.0178  0.0000  0.0000  0.0000  0.0000  0.0000 </r>
       </set>
       <set comment="band 103">
        <r>  0.0114  0.0100  0.0008  0.0182  0.0054  0.0004  0.0027  0.0004  0.0100 </r>
        <r>  0.0128  0.0063  0.0088  0.0219  0.0078  0.0011  0.0015  0.0001  0.0091 </r>
        <r>  0.0155  0.0097  0.0026  0.0166  0.0061  0.0015  0.0015  0.0015  0.0107 </r>
        <r>  0.0112  0.0057  0.0002  0.0192  0.0091  0.0003  0.0023  0.0023  0.0099 </r>
        <r>  0.0004  0.0019  0.0066  0.0063  0.0013  0.0048  0.0019  0.0025  0.0040 </r>
        <r>  0.0021  0.0017  0.0045  0.0088  0.0018  0.0012  0.0001  0.0033  0.0028 </r>
        <r>  0.0044  0.0030  0.0116  0.0056  0.0006  0.0019  0.0001  0.0001  0.0036 </r>
        <r>  0.0024  0.0021  0.0277  0.0074  0.0012  0.0022  0.0001  0.0003  0.0029 </r>
        <r>  0.0015  0.0074  0.0033  0.0102  0.0022  0.0018  0.0019  0.0017  0.0083 </r>
        <r>  0.0079  0.0045  0.0025  0.0116  0.0037  0.0001  0.0000  0.0020  0.0068 </r>
        <r>  0.0027  0.0073  0.0007  0.0164  0.0025  0.0010  0.0002  0.0003  0.0068 </r>
        <r>  0.0010  0.0027  0.0036  0.0184  0.0051  0.0008  0.0014  0.0015  0.0057 </r>
        <r>  0.0010  0.0011  0.0023  0.0011  0.0000  0.0019  0.0030  0.0046  0.0004 </r>
        <r>  0.0105  0.0004  0.0009  0.0011  0.0001  0.0002  0.0006  0.0032  0.0005 </r>
        <r>  0.0096  0.0008  0.0023  0.0001  0.0009  0.0024  0.0003  0.0005  0.0002 </r>
        <r>  0.0009  0.0004  0.0055  0.0006  0.0026  0.0013  0.0008  0.0002  0.0007 </r>
        <r>  0.0042  0.0042  0.0024  0.0096  0.0000  0.0000  0.0000  0.0000  0.0000 </r>
        <r>  0.0000  0.0006  0.0009  0.0036  0.0000  0.0000  0.0000  0.0000  0.0000 </r>
       </set>
       <set comment="band 104">
        <r>  0.0064  0.0010  0.0071  0.0011  0.0004  0.0034  0.0001  0.0012  0.0008 </r>
        <r>  0.0019  0.0005  0.0003  0.0010  0.0005  0.0010  0.0012  0.0030  0.0011 </r>
        <r>  0.0015  0.0002  0.0006  0.0011  0.0011  0.0008  0.0010  0.0028  0.0007 </r>
        <r>  0.0034  0.0005  0.0194  0.0015  0.0011  0.0010  0.0000  0.0009  0.0008 </r>
        <r>  0.0050  0.0008  0.0015  0.0013  0.0004  0.0016  0.0001  0.0004  0.0005 </r>
        <r>  0.0004  0.0010  0.0076  0.0011  0.0003  0.0041  0.0019  0.0001  0.0014 </r>
        <r>  0.0002  0.0004  0.0120  0.0025  0.0007  0.0005  0.0005  0.0036  0.0003 </r>
        <r>  0.0019  0.0013  0.0049  0.0021  0.0006  0.0011  0.0001  0.0076  0.0009 </r>
        <r>  0.0051  0.0014  0.0111  0.0006  0.0036  0.0032  0.0050  0.0010  0.0021 </r>
        <r>  0.0179  0.0038  0.0178  0.0035  0.0039  0.0016  0.0004  0.0003  0.0006 </r>
        <r>  0.0236  0.0039  0.0010  0.0011  0.0040  0.0040  0.0000  0.0046  0.0024 </r>
        <r>  0.0085  0.0013  0.0059  0.0010  0.0042  0.0008  0.0037  0.0033  0.0013 </r>
        <r>  0.0207  0.0045  0.0138  0.0050  0.0041  0.0045  0.0004  0.0015  0.0007 </r>
        <r>  0.0012  0.0061  0.0033  0.0042  0.0092  0.0039  0.0021  0.0006  0.0039 </r>
        <r>  0.0078  0.0029  0.0015  0.0101  0.0038  0.0022  0.0052  0.0082  0.0008 </r>
        <r>  0.0248  0.0091  0.0120  0.0083  0.0022  0.0011  0.0010  0.0064  0.0057 </r>
        <r>  0.0041  0.0334  0.0017  0.0207  0.0000  0.0000  0.0000  0.0000  0.0000 </r>
        <r>  0.0002  0.0059  0.0017  0.0063  0.0000  0.0000  0.0000  0.0000  0.0000 </r>
       </set>
       <set comment="band 105">
        <r>  0.0030  0.0005  0.0073  0.0002  0.0012  0.0021  0.0002  0.0031  0.0001 </r>
        <r>  0.0021  0.0005  0.0146  0.0001  0.0015  0.0025  0.0006  0.0019  0.0001 </r>
        <r>  0.0034  0.0008  0.0181  0.0001  0.0006  0.0019  0.0003  0.0015  0.0001 </r>
        <r>  0.0038  0.0013  0.0038  0.0000  0.0006  0.0033  0.0005  0.0043  0.0002 </r>
        <r>  0.0006  0.0003  0.0072  0.0002  0.0000  0.0044  0.0001  0.0047  0.0002 </r>
        <r>  0.0002  0.0006  0.0221  0.0002  0.0000  0.0017  0.0000  0.0020  0.0003 </r>
        <r>  0.0003  0.0001  0.0110  0.0003  0.0003  0.0051  0.0002  0.0030  0.0005 </r>
        <r>  0.0011  0.0002  0.0044  0.0008  0.0005  0.0010  0.0000  0.0042  0.0001 </r>
        <r>  0.0053  0.0006  0.0005  0.0034  0.0011  0.0019  0.0005  0.0061  0.0007 </r>
        <r>  0.0024  0.0016  0.0150  0.0024  0.0009  0.0050  0.0006  0.0026  0.0025 </r>
        <r>  0.0092  0.0010  0.0267  0.0028  0.0005  0.0024  0.0005  0.0001  0.0004 </r>
        <r>  0.0015  0.0020  0.0008  0.0024  0.0010  0.0026  0.0005  0.0038  0.0018 </r>
        <r>  0.0037  0.0005  0.0030  0.0010  0.0010  0.0068  0.0010  0.0054  0.0002 </r>
        <r>  0.0110  0.0041  0.0365  0.0007  0.0016  0.0014  0.0002  0.0061  0.0014 </r>
        <r>  0.0014  0.0032  0.0060  0.0021  0.0011  0.0092  0.0012  0.0007  0.0005 </r>
        <r>  0.0010  0.0032  0.0138  0.0047  0.0019  0.0017  0.0001  0.0022  0.0004 </r>
        <r>  0.0002  0.0200  0.0000  0.0170  0.0000  0.0000  0.0000  0.0000  0.0000 </r>
        <r>  0.0003  0.0023  0.0004  0.0009  0.0000  0.0000  0.0000  0.0000  0.0000 </r>
       </set>
       <set comment="band 106">
        <r>  0.0173  0.0023  0.0138  0.0026  0.0005  0.0004  0.0011  0.0004  0.0010 </r>
        <r>  0.0003  0.0007  0.0010  0.0017  0.0012  0.0011  0.0033  0.0031  0.0015 </r>
        <r>  0.0004  0.0018  0.0039  0.0022  0.0006  0.0007  0.0045  0.0007  0.0007 </r>
        <r>  0.0100  0.0011  0.0033  0.0033  0.0007  0.0014  0.0003  0.0013  0.0011 </r>
        <r>  0.0162  0.0015  0.0101  0.0007  0.0009  0.0003  0.0031  0.0051  0.0003 </r>
        <r>  0.0007  0.0002  0.0013  0.0000  0.0016  0.0012  0.0043  0.0064  0.0006 </r>
        <r>  0.0028  0.0000  0.0034  0.0001  0.0008  0.0011  0.0029  0.0003  0.0003 </r>
        <r>  0.0097  0.0036  0.0038  0.0014  0.0004  0.0032  0.0010  0.0004  0.0006 </r>
        <r>  0.0016  0.0015  0.0077  0.0007  0.0023  0.0005  0.0076  0.0013  0.0007 </r>
        <r>  0.0209  0.0015  0.0001  0.0030  0.0025  0.0014  0.0017  0.0043  0.0008 </r>
        <r>  0.0297  0.0061  0.0016  0.0008  0.0007  0.0000  0.0006  0.0014  0.0013 </r>
        <r>  0.0022  0.0002  0.0048  0.0003  0.0026  0.0017  0.0063  0.0010  0.0018 </r>
        <r>  0.0166  0.0024  0.0010  0.0006  0.0019  0.0012  0.0045  0.0007  0.0001 </r>
        <r>  0.0055  0.0065  0.0033  0.0013  0.0004  0.0019  0.0030  0.0008  0.0012 </r>
        <r>  0.0024  0.0001  0.0025  0.0001  0.0020  0.0000  0.0039  0.0002  0.0003 </r>
        <r>  0.0056  0.0083  0.0143  0.0030  0.0014  0.0017  0.0010  0.0010  0.0000 </r>
        <r>  0.0055  0.0074  0.0019  0.0040  0.0000  0.0000  0.0000  0.0000  0.0000 </r>
        <r>  0.0011  0.0010  0.0002  0.0003  0.0000  0.0000  0.0000  0.0000  0.0000 </r>
       </set>
       <set comment="band 107">
        <r>  0.0029  0.0030  0.0000  0.0059  0.0022  0.0003  0.0046  0.0002  0.0022 </r>
        <r>  0.0206  0.0030  0.0004  0.0069  0.0026  0.0004  0.0007  0.0005  0.0025 </r>
        <r>  0.0253  0.0056  0.0011  0.0065  0.0015  0.0000  0.0005  0.0004  0.0022 </r>
        <r>  0.0012  0.0024  0.0019  0.0055  0.0023  0.0002  0.0061  0.0007  0.0024 </r>
        <r>  0.0011  0.0005  0.0025  0.0003  0.0028  0.0013  0.0035  0.0040  0.0008 </r>
        <r>  0.0184  0.0037  0.0033  0.0015  0.0025  0.0019  0.0017  0.0052  0.0007 </r>
        <r>  0.0239  0.0051  0.0023  0.0015  0.0014  0.0018  0.0012  0.0034  0.0007 </r>
        <r>  0.0002  0.0005  0.0002  0.0005  0.0025  0.0015  0.0055  0.0029  0.0011 </r>
        <r>  0.0304  0.0059  0.0041  0.0013  0.0025  0.0005  0.0008  0.0040  0.0006 </r>
        <r>  0.0010  0.0008  0.0013  0.0005  0.0042  0.0008  0.0069  0.0044  0.0011 </r>
        <r>  0.0032  0.0009  0.0006  0.0001  0.0028  0.0006  0.0039  0.0010  0.0010 </r>
        <r>  0.0261  0.0044  0.0026  0.0012  0.0032  0.0014  0.0009  0.0015  0.0008 </r>
        <r>  0.0005  0.0039  0.0008  0.0046  0.0022  0.0003  0.0021  0.0002  0.0003 </r>
        <r>  0.0082  0.0056  0.0023  0.0036  0.0010  0.0008  0.0005  0.0011  0.0024 </r>
        <r>  0.0102  0.0039  0.0066  0.0033  0.0018  0.0001  0.0012  0.0003  0.0009 </r>
        <r>  0.0011  0.0037  0.0001  0.0036  0.0024  0.0007  0.0034  0.0007  0.0013 </r>
        <r>  0.0001  0.0041  0.0002  0.0044  0.0000  0.0000  0.0000  0.0000  0.0000 </r>
        <r>  0.0026  0.0031  0.0003  0.0018  0.0000  0.0000  0.0000  0.0000  0.0000 </r>
       </set>
       <set comment="band 108">
        <r>  0.0074  0.0014  0.0078  0.0016  0.0005  0.0010  0.0000  0.0002  0.0006 </r>
        <r>  0.0010  0.0005  0.0008  0.0021  0.0007  0.0004  0.0017  0.0005  0.0004 </r>
        <r>  0.0027  0.0003  0.0037  0.0014  0.0007  0.0004  0.0006  0.0002  0.0007 </r>
        <r>  0.0087  0.0008  0.0033  0.0016  0.0007  0.0010  0.0003  0.0008  0.0007 </r>
        <r>  0.0000  0.0015  0.0050  0.0007  0.0002  0.0005  0.0006  0.0003  0.0006 </r>
        <r>  0.0014  0.0004  0.0057  0.0010  0.0004  0.0005  0.0002  0.0006  0.0005 </r>
        <r>  0.0010  0.0011  0.0027  0.0019  0.0005  0.0013  0.0000  0.0015  0.0005 </r>
        <r>  0.0013  0.0001  0.0022  0.0020  0.0008  0.0010  0.0002  0.0014  0.0002 </r>
        <r>  0.0050  0.0006  0.0006  0.0001  0.0001  0.0001  0.0025  0.0000  0.0000 </r>
        <r>  0.0011  0.0003  0.0080  0.0004  0.0001  0.0010  0.0018  0.0004  0.0000 </r>
        <r>  0.0026  0.0016  0.0066  0.0003  0.0002  0.0006  0.0011  0.0001  0.0000 </r>
        <r>  0.0004  0.0006  0.0003  0.0002  0.0003  0.0001  0.0007  0.0003  0.0000 </r>
        <r>  0.0057  0.0007  0.0003  0.0019  0.0006  0.0006  0.0046  0.0010  0.0002 </r>
        <r>  0.0024  0.0006  0.0005  0.0023  0.0010  0.0000  0.0011  0.0007  0.0013 </r>
        <r>  0.0035  0.0003  0.0005  0.0026  0.0000  0.0007  0.0039  0.0004  0.0003 </r>
        <r>  0.0048  0.0031  0.0000  0.0039  0.0000  0.0001  0.0009  0.0005  0.0010 </r>
        <r>  0.0076  0.0020  0.0013  0.0014  0.0000  0.0000  0.0000  0.0000  0.0000 </r>
        <r>  0.0033  0.0035  0.0004  0.0011  0.0000  0.0000  0.0000  0.0000  0.0000 </r>
       </set>
       <set comment="band 109">
        <r>  0.0085  0.0018  0.0055  0.0039  0.0014  0.0007  0.0013  0.0007  0.0017 </r>
        <r>  0.0076  0.0011  0.0055  0.0061  0.0017  0.0001  0.0016  0.0006  0.0013 </r>
        <r>  0.0156  0.0012  0.0012  0.0036  0.0014  0.0015  0.0000  0.0013  0.0023 </r>
        <r>  0.0140  0.0005  0.0015  0.0049  0.0019  0.0001  0.0003  0.0008  0.0017 </r>
        <r>  0.0000  0.0029  0.0025  0.0028  0.0003  0.0012  0.0022  0.0007  0.0024 </r>
        <r>  0.0012  0.0011  0.0005  0.0038  0.0006  0.0005  0.0004  0.0008  0.0016 </r>
        <r>  0.0033  0.0013  0.0013  0.0072  0.0009  0.0005  0.0001  0.0033  0.0016 </r>
        <r>  0.0064  0.0009  0.0051  0.0067  0.0014  0.0002  0.0013  0.0035  0.0009 </r>
        <r>  0.0066  0.0066  0.0041  0.0017  0.0006  0.0008  0.0009  0.0003  0.0002 </r>
        <r>  0.0021  0.0044  0.0032  0.0024  0.0013  0.0001  0.0000  0.0009  0.0000 </r>
        <r>  0.0013  0.0032  0.0035  0.0010  0.0012  0.0001  0.0014  0.0001  0.0004 </r>
        <r>  0.0025  0.0019  0.0125  0.0002  0.0026  0.0002  0.0060  0.0001  0.0002 </r>
        <r>  0.0015  0.0004  0.0003  0.0054  0.0042  0.0022  0.0021  0.0017  0.0017 </r>
        <r>  0.0097  0.0053  0.0001  0.0053  0.0014  0.0002  0.0017  0.0016  0.0034 </r>
        <r>  0.0001  0.0032  0.0009  0.0102  0.0015  0.0007  0.0010  0.0012  0.0017 </r>
        <r>  0.0064  0.0074  0.0006  0.0100  0.0007  0.0002  0.0024  0.0016  0.0032 </r>
        <r>  0.0074  0.0009  0.0070  0.0020  0.0000  0.0000  0.0000  0.0000  0.0000 </r>
        <r>  0.0028  0.0041  0.0028  0.0014  0.0000  0.0000  0.0000  0.0000  0.0000 </r>
       </set>
       <set comment="band 110">
        <r>  0.0117  0.0138  0.0028  0.0028  0.0076  0.0001  0.0006  0.0001  0.0031 </r>
        <r>  0.0058  0.0128  0.0093  0.0041  0.0109  0.0001  0.0009  0.0001  0.0033 </r>
        <r>  0.0065  0.0130  0.0126  0.0042  0.0084  0.0001  0.0003  0.0002  0.0026 </r>
        <r>  0.0055  0.0145  0.0091  0.0067  0.0111  0.0002  0.0000  0.0006  0.0028 </r>
        <r>  0.0053  0.0161  0.0000  0.0081  0.0060  0.0002  0.0001  0.0002  0.0023 </r>
        <r>  0.0011  0.0200  0.0006  0.0097  0.0093  0.0001  0.0009  0.0005  0.0021 </r>
        <r>  0.0001  0.0156  0.0018  0.0042  0.0062  0.0002  0.0027  0.0002  0.0030 </r>
        <r>  0.0015  0.0146  0.0029  0.0044  0.0106  0.0001  0.0019  0.0005  0.0031 </r>
        <r>  0.0106  0.0022  0.0001  0.0018  0.0009  0.0011  0.0007  0.0025  0.0006 </r>
        <r>  0.0021  0.0036  0.0002  0.0031  0.0013  0.0009  0.0035  0.0036  0.0005 </r>
        <r>  0.0091  0.0035  0.0002  0.0023  0.0007  0.0012  0.0007  0.0026  0.0005 </r>
        <r>  0.0094  0.0029  0.0003  0.0021  0.0014  0.0008  0.0015  0.0043  0.0005 </r>
        <r>  0.0028  0.0045  0.0002  0.0070  0.0019  0.0008  0.0003  0.0000  0.0006 </r>
        <r>  0.0072  0.0032  0.0008  0.0057  0.0031  0.0014  0.0003  0.0006  0.0020 </r>
        <r>  0.0055  0.0048  0.0008  0.0016  0.0019  0.0014  0.0014  0.0001  0.0008 </r>
        <r>  0.0038  0.0020  0.0006  0.0012  0.0040  0.0006  0.0003  0.0002  0.0026 </r>
        <r>  0.0010  0.0002  0.0005  0.0125  0.0000  0.0000  0.0000  0.0000  0.0000 </r>
        <r>  0.0000  0.0003  0.0011  0.0033  0.0000  0.0000  0.0000  0.0000  0.0000 </r>
       </set>
       <set comment="band 111">
        <r>  0.0231  0.0003  0.0002  0.0008  0.0000  0.0001  0.0006  0.0009  0.0001 </r>
        <r>  0.0203  0.0055  0.0007  0.0002  0.0001  0.0037  0.0002  0.0009  0.0002 </r>
        <r>  0.0101  0.0002  0.0081  0.0002  0.0000  0.0002  0.0059  0.0002  0.0000 </r>
        <r>  0.0199  0.0031  0.0002  0.0006  0.0000  0.0019  0.0001  0.0000  0.0000 </r>
        <r>  0.0169  0.0086  0.0033  0.0049  0.0018  0.0003  0.0030  0.0007  0.0010 </r>
        <r>  0.0129  0.0073  0.0007  0.0058  0.0039  0.0009  0.0022  0.0014  0.0009 </r>
        <r>  0.0282  0.0067  0.0031  0.0021  0.0019  0.0001  0.0000  0.0001  0.0013 </r>
        <r>  0.0064  0.0112  0.0017  0.0037  0.0031  0.0010  0.0073  0.0005  0.0012 </r>
        <r>  0.0012  0.0084  0.0013  0.0032  0.0035  0.0008  0.0050  0.0016  0.0015 </r>
        <r>  0.0086  0.0120  0.0009  0.0015  0.0061  0.0017  0.0027  0.0022  0.0021 </r>
        <r>  0.0104  0.0073  0.0040  0.0049  0.0041  0.0009  0.0010  0.0013  0.0011 </r>
        <r>  0.0062  0.0164  0.0008  0.0053  0.0056  0.0017  0.0014  0.0025  0.0012 </r>
        <r>  0.0088  0.0010  0.0000  0.0019  0.0000  0.0009  0.0007  0.0003  0.0004 </r>
        <r>  0.0029  0.0001  0.0037  0.0019  0.0001  0.0002  0.0034  0.0002  0.0014 </r>
        <r>  0.0217  0.0014  0.0046  0.0018  0.0001  0.0000  0.0004  0.0000  0.0003 </r>
        <r>  0.0064  0.0001  0.0024  0.0025  0.0001  0.0012  0.0009  0.0001  0.0003 </r>
        <r>  0.0012  0.0042  0.0007  0.0010  0.0000  0.0000  0.0000  0.0000  0.0000 </r>
        <r>  0.0003  0.0013  0.0011  0.0007  0.0000  0.0000  0.0000  0.0000  0.0000 </r>
       </set>
      </set>
     </set>
    </set>
   </array>
  </projected>
 </calculation>
 <structure name="finalpos" >
  <crystal>
   <varray name="basis" >
    <v>       5.44472222       0.00000000       0.00000000 </v>
    <v>       2.72236111       4.71526775       0.00000000 </v>
    <v>       0.00000000       0.00000000      30.66839561 </v>
   </varray>
   <i name="volume">    787.35962928 </i>
   <varray name="rec_basis" >
    <v>       0.18366410      -0.10603852       0.00000000 </v>
    <v>       0.00000000       0.21207703       0.00000000 </v>
    <v>       0.00000000       0.00000000       0.03260686 </v>
   </varray>
  </crystal>
  <varray name="positions" >
   <v>       0.00000000       0.00000000       0.39128229 </v>
   <v>       0.50000000       0.00000000       0.39128229 </v>
   <v>       0.00000000       0.50000000       0.39128229 </v>
   <v>       0.50000000       0.50000000       0.39128229 </v>
   <v>       0.16666667       0.16666667       0.46376076 </v>
   <v>       0.66666667       0.16666667       0.46376076 </v>
   <v>       0.16666667       0.66666667       0.46376076 </v>
   <v>       0.66666667       0.66666667       0.46376076 </v>
   <v>       0.82095432       0.33951434       0.53838053 </v>
   <v>       0.31229765       0.34347489       0.53817066 </v>
   <v>       0.81909434       0.84043972       0.54286187 </v>
   <v>       0.31229376       0.84417306       0.53817540 </v>
   <v>       0.97767891       0.01868911       0.61183698 </v>
   <v>       0.49888661       0.00044085       0.61965030 </v>
   <v>       0.97759651       0.50368785       0.61183207 </v>
   <v>       0.46723395       0.51649810       0.61840706 </v>
   <v>       0.00790629       0.24607690       0.66171441 </v>
   <v>       0.01161161       0.24434297       0.70032256 </v>
  </varray>
  <varray name="selective"  type="logical" >
   <v type="logical" >  F  F  F </v>
   <v type="logical" >  F  F  F </v>
   <v type="logical" >  F  F  F </v>
   <v type="logical" >  F  F  F </v>
   <v type="logical" >  F  F  F </v>
   <v type="logical" >  F  F  F </v>
   <v type="logical" >  F  F  F </v>
   <v type="logical" >  F  F  F </v>
   <v type="logical" >  T  T  T </v>
   <v type="logical" >  T  T  T </v>
   <v type="logical" >  T  T  T </v>
   <v type="logical" >  T  T  T </v>
   <v type="logical" >  T  T  T </v>
   <v type="logical" >  T  T  T </v>
   <v type="logical" >  T  T  T </v>
   <v type="logical" >  T  T  T </v>
   <v type="logical" >  T  T  T </v>
   <v type="logical" >  T  T  T </v>
  </varray>
  <nose>
   <v>      -3.00000000       0.00000000       0.00010000       0.00010000 </v>
  </nose>
 </structure>
</modeling>
