Cu-Ag alloy CO adsorption (RPBE, matches
            1
     5.444722    0.000000    0.000000
     2.722361    4.715268    0.000000
     0.000000    0.000000   30.668396
   Cu   Ag   Cu   Ag   Cu   Ag   Cu   Ag   Cu   Ag   Cu   Ag   Cu   Ag   Cu   Ag   C    O 
     1     1     1     1     1     1     1     1     1     1     1     1     1     1     1     1     1     1
Direct configuration=     1
   0.00000000  0.00000000  0.39128229
   0.50000000  0.00000000  0.39128229
   0.00000000  0.50000000  0.39128229
   0.50000000  0.50000000  0.39128229
   0.16666667  0.16666667  0.46376076
   0.66666667  0.16666667  0.46376076
   0.16666667  0.66666667  0.46376076
   0.66666667  0.66666667  0.46376076
   0.83333333  0.33333333  0.53623924
   0.33333333  0.33333333  0.53623924
   0.83333333  0.83333333  0.53623924
   0.33333333  0.83333333  0.53623924
   0.00000000  0.00000000  0.60871771
   0.50000000  0.00000000  0.60871771
   0.00000000  0.50000000  0.60871771
   0.50000000  0.50000000  0.60871771
   0.16666667  0.16666667  0.66741006
   0.16666667  0.16666667  0.70425580
Direct configuration=     2
   0.00000000  0.00000000  0.39128229
   0.50000000  0.00000000  0.39128229
   0.00000000  0.50000000  0.39128229
   0.50000000  0.50000000  0.39128229
   0.16666667  0.16666667  0.46376076
   0.66666667  0.16666667  0.46376076
   0.16666667  0.66666667  0.46376076
   0.66666667  0.66666667  0.46376076
   0.83714214  0.33142857  0.53641562
   0.32719334  0.33618372  0.53534311
   0.83668886  0.83165512  0.53672450
   0.32719341  0.83662247  0.53534311
   0.99862707  0.00128995  0.60895730
   0.50565959  0.99717014  0.61044430
   0.99862739  0.50008231  0.60895721
   0.50315863  0.49842035  0.61017170
   0.16299061  0.16850472  0.65967769
   0.16680507  0.16660100  0.71119072
Direct configuration=     3
   0.00000000  0.00000000  0.39128229
   0.50000000  0.00000000  0.39128229
   0.00000000  0.50000000  0.39128229
   0.50000000  0.50000000  0.39128229
   0.16666667  0.16666667  0.46376076
   0.66666667  0.16666667  0.46376076
   0.16666667  0.66666667  0.46376076
   0.66666667  0.66666667  0.46376076
   0.83477412  0.33261281  0.53630596
   0.33101072  0.33441157  0.53590025
   0.83460265  0.83269850  0.53642280
   0.33101074  0.83457754  0.53590025
   0.99948065  0.00048796  0.60880834
   0.50214089  0.99892953  0.60937084
   0.99948077  0.50003114  0.60880831
   0.50119484  0.49940246  0.60926772
   0.16527610  0.16736196  0.66448508
   0.16671902  0.16664183  0.70687912
Direct configuration=     4
   0.00000000  0.00000000  0.39128229
   0.50000000  0.00000000  0.39128229
   0.00000000  0.50000000  0.39128229
   0.50000000  0.50000000  0.39128229
   0.16666667  0.16666667  0.46376076
   0.66666667  0.16666667  0.46376076
   0.16666667  0.66666667  0.46376076
   0.66666667  0.66666667  0.46376076
   0.83396529  0.33301729  0.53626850
   0.33231458  0.33380627  0.53609055
   0.83389008  0.83305488  0.53631975
   0.33231460  0.83387907  0.53609055
   0.99977220  0.00021403  0.60875746
   0.50093904  0.99953047  0.60900419
   0.99977226  0.50001366  0.60875745
   0.50052408  0.49973790  0.60895896
   0.16605673  0.16697164  0.66612710
   0.16668963  0.16665577  0.70540645
Direct configuration=     5
   0.00000000  0.00000000  0.39128229
   0.50000000  0.00000000  0.39128229
   0.00000000  0.50000000  0.39128229
   0.50000000  0.50000000  0.39128229
   0.16666667  0.16666667  0.46376076
   0.66666667  0.16666667  0.46376076
   0.16666667  0.66666667  0.46376076
   0.66666667  0.66666667  0.46376076
   0.83379431  0.33310280  0.53626058
   0.33259021  0.33367832  0.53613078
   0.83373945  0.83313022  0.53629797
   0.33259022  0.83373142  0.53613078
   0.99983383  0.00015612  0.60874671
   0.50068498  0.99965750  0.60892668
   0.99983387  0.50000996  0.60874670
   0.50038229  0.49980881  0.60889369
   0.16622175  0.16688913  0.66647420
   0.16668342  0.16665872  0.70509514
Direct configuration=     6
   0.00000000  0.00000000  0.39128229
   0.50000000  0.00000000  0.39128229
   0.00000000  0.50000000  0.39128229
   0.50000000  0.50000000  0.39128229
   0.16666667  0.16666667  0.46376076
   0.66666667  0.16666667  0.46376076
   0.16666667  0.66666667  0.46376076
   0.66666667  0.66666667  0.46376076
   0.83375580  0.33312206  0.53625880
   0.33265229  0.33364950  0.53613984
   0.83370553  0.83314719  0.53629306
   0.33265230  0.83369816  0.53613984
   0.99984772  0.00014308  0.60874429
   0.50062776  0.99968611  0.60890922
   0.99984775  0.50000913  0.60874428
   0.50035035  0.49982479  0.60887899
   0.16625892  0.16687054  0.66655239
   0.16668202  0.16665938  0.70502502
Direct configuration=     7
   0.00000000  0.00000000  0.39128229
   0.50000000  0.00000000  0.39128229
   0.00000000  0.50000000  0.39128229
   0.50000000  0.50000000  0.39128229
   0.16666667  0.16666667  0.46376076
   0.66666667  0.16666667  0.46376076
   0.16666667  0.66666667  0.46376076
   0.66666667  0.66666667  0.46376076
   0.83685859  0.33157034  0.53641802
   0.32754742  0.33605462  0.53540751
   0.83646964  0.83176470  0.53674145
   0.32754751  0.83639754  0.53540752
   0.99892738  0.00141190  0.60903069
   0.50536089  0.99731939  0.61045106
   0.99892765  0.49965993  0.60903061
   0.50297281  0.49851330  0.61014344
   0.16272432  0.16863791  0.66610824
   0.16677364  0.16661699  0.70454453
Direct configuration=     8
   0.00000000  0.00000000  0.39128229
   0.50000000  0.00000000  0.39128229
   0.00000000  0.50000000  0.39128229
   0.50000000  0.50000000  0.39128229
   0.16666667  0.16666667  0.46376076
   0.66666667  0.16666667  0.46376076
   0.16666667  0.66666667  0.46376076
   0.66666667  0.66666667  0.46376076
   0.84123878  0.32937979  0.53664280
   0.32034090  0.33944992  0.53437369
   0.84037174  0.82981304  0.53737445
   0.32034108  0.84020824  0.53437370
   0.99762815  0.00320308  0.60943500
   0.51204263  0.99397830  0.61262767
   0.99762873  0.49916695  0.60943484
   0.50667492  0.49666189  0.61192847
   0.15773454  0.17113289  0.66548124
   0.16690298  0.16655714  0.70386623
Direct configuration=     9
   0.00000000  0.00000000  0.39128229
   0.50000000  0.00000000  0.39128229
   0.00000000  0.50000000  0.39128229
   0.50000000  0.50000000  0.39128229
   0.16666667  0.16666667  0.46376076
   0.66666667  0.16666667  0.46376076
   0.16666667  0.66666667  0.46376076
   0.66666667  0.66666667  0.46376076
   0.84176849  0.32911488  0.53666998
   0.31946940  0.33986052  0.53424867
   0.84084362  0.82957702  0.53745100
   0.31946960  0.84066907  0.53424867
   0.99747103  0.00341969  0.60948389
   0.51285067  0.99357425  0.61289089
   0.99747165  0.49910734  0.60948372
   0.50712262  0.49643799  0.61214434
   0.15713112  0.17143461  0.66540542
   0.16691862  0.16654990  0.70378420
Direct configuration=    10
   0.00000000  0.00000000  0.39128229
   0.50000000  0.00000000  0.39128229
   0.00000000  0.50000000  0.39128229
   0.50000000  0.50000000  0.39128229
   0.16666667  0.16666667  0.46376076
   0.66666667  0.16666667  0.46376076
   0.16666667  0.66666667  0.46376076
   0.66666667  0.66666667  0.46376076
   0.83949571  0.33025085  0.53697955
   0.31973853  0.33961315  0.53472299
   0.83866656  0.83066484  0.53815435
   0.31973874  0.84064700  0.53472302
   0.99956860  0.00371239  0.60992579
   0.51549820  0.99224980  0.61386690
   0.99956793  0.49671776  0.60992536
   0.50623594  0.49688056  0.61285172
   0.15229180  0.17385471  0.66476194
   0.16609328  0.16696701  0.70307366
Direct configuration=    11
   0.00000000  0.00000000  0.39128229
   0.50000000  0.00000000  0.39128229
   0.00000000  0.50000000  0.39128229
   0.50000000  0.50000000  0.39128229
   0.16666667  0.16666667  0.46376076
   0.66666667  0.16666667  0.46376076
   0.16666667  0.66666667  0.46376076
   0.66666667  0.66666667  0.46376076
   0.83267737  0.33365875  0.53790827
   0.32054592  0.33887105  0.53614595
   0.83213539  0.83392831  0.54026439
   0.32054617  0.84058077  0.53614605
   0.00586129  0.00459048  0.61125147
   0.52344080  0.98827646  0.61679491
   0.00585674  0.48954903  0.61125029
   0.50357587  0.49820828  0.61497384
   0.13777386  0.18111501  0.66283149
   0.16361727  0.16821834  0.70094201
Direct configuration=    12
   0.00000000  0.00000000  0.39128229
   0.50000000  0.00000000  0.39128229
   0.00000000  0.50000000  0.39128229
   0.50000000  0.50000000  0.39128229
   0.16666667  0.16666667  0.46376076
   0.66666667  0.16666667  0.46376076
   0.16666667  0.66666667  0.46376076
   0.66666667  0.66666667  0.46376076
   0.81904068  0.34047456  0.53976570
   0.32216070  0.33738685  0.53899186
   0.81907303  0.84045525  0.54448448
   0.32216103  0.84044833  0.53899211
   0.01844668  0.00634666  0.61390282
   0.53932600  0.98032977  0.62265094
   0.01843438  0.47521157  0.61390014
   0.49825575  0.50086371  0.61921810
   0.10873797  0.19563560  0.65897061
   0.15866525  0.17072100  0.69667873
Direct configuration=    13
   0.00000000  0.00000000  0.39128229
   0.50000000  0.00000000  0.39128229
   0.00000000  0.50000000  0.39128229
   0.50000000  0.50000000  0.39128229
   0.16666667  0.16666667  0.46376076
   0.66666667  0.16666667  0.46376076
   0.16666667  0.66666667  0.46376076
   0.66666667  0.66666667  0.46376076
   0.82852426  0.33573453  0.53847395
   0.32103770  0.33841903  0.53701268
   0.82815720  0.83591612  0.54154964
   0.32103798  0.84054044  0.53701283
   0.00969422  0.00512533  0.61205895
   0.52827869  0.98585627  0.61857839
   0.00968731  0.48518250  0.61205731
   0.50195561  0.49901700  0.61626645
   0.12893087  0.18553731  0.66165565
   0.16210912  0.16898053  0.69964361
Direct configuration=    14
   0.00000000  0.00000000  0.39128229
   0.50000000  0.00000000  0.39128229
   0.00000000  0.50000000  0.39128229
   0.50000000  0.50000000  0.39128229
   0.16666667  0.16666667  0.46376076
   0.66666667  0.16666667  0.46376076
   0.16666667  0.66666667  0.46376076
   0.66666667  0.66666667  0.46376076
   0.82688184  0.33655531  0.53876773
   0.32102408  0.33848383  0.53747770
   0.82689677  0.83654603  0.54222680
   0.32102407  0.84048909  0.53747789
   0.01100752  0.00540765  0.61246042
   0.53238626  0.98380217  0.61920713
   0.01100048  0.48358789  0.61245836
   0.50141300  0.49928704  0.61685925
   0.12301581  0.18849466  0.66027161
   0.16078476  0.16964618  0.69998088
Direct configuration=    15
   0.00000000  0.00000000  0.39128229
   0.50000000  0.00000000  0.39128229
   0.00000000  0.50000000  0.39128229
   0.50000000  0.50000000  0.39128229
   0.16666667  0.16666667  0.46376076
   0.66666667  0.16666667  0.46376076
   0.16666667  0.66666667  0.46376076
   0.66666667  0.66666667  0.46376076
   0.82808568  0.33595370  0.53855240
   0.32103406  0.33843634  0.53713685
   0.82782062  0.83608432  0.54173046
   0.32103427  0.84052672  0.53713701
   0.01004491  0.00520072  0.61216615
   0.52937555  0.98530776  0.61874628
   0.01003797  0.48475669  0.61216440
   0.50181071  0.49908911  0.61642474
   0.12735136  0.18632702  0.66128606
   0.16175547  0.16915828  0.69973367
Direct configuration=    16
   0.00000000  0.00000000  0.39128229
   0.50000000  0.00000000  0.39128229
   0.00000000  0.50000000  0.39128229
   0.50000000  0.50000000  0.39128229
   0.16666667  0.16666667  0.46376076
   0.66666667  0.16666667  0.46376076
   0.16666667  0.66666667  0.46376076
   0.66666667  0.66666667  0.46376076
   0.82778112  0.33610581  0.53867309
   0.32082755  0.33870305  0.53733698
   0.82788862  0.83605045  0.54202088
   0.32082743  0.84046652  0.53733716
   0.01010338  0.00528873  0.61231923
   0.53219995  0.98389559  0.61881014
   0.01009728  0.48461079  0.61231719
   0.50178073  0.49910326  0.61662591
   0.12479479  0.18760567  0.66112984
   0.15995577  0.17005820  0.69961527
Direct configuration=    17
   0.00000000  0.00000000  0.39128229
   0.50000000  0.00000000  0.39128229
   0.00000000  0.50000000  0.39128229
   0.50000000  0.50000000  0.39128229
   0.16666667  0.16666667  0.46376076
   0.66666667  0.16666667  0.46376076
   0.16666667  0.66666667  0.46376076
   0.66666667  0.66666667  0.46376076
   0.82750252  0.33624494  0.53878348
   0.32063864  0.33894703  0.53752004
   0.82795083  0.83601946  0.54228654
   0.32063823  0.84041144  0.53752025
   0.01015686  0.00536925  0.61245926
   0.53478354  0.98260384  0.61886855
   0.01015154  0.48447732  0.61245695
   0.50175330  0.49911620  0.61680992
   0.12245620  0.18877530  0.66098693
   0.15830951  0.17088138  0.69950696
Direct configuration=    18
   0.00000000  0.00000000  0.39128229
   0.50000000  0.00000000  0.39128229
   0.00000000  0.50000000  0.39128229
   0.50000000  0.50000000  0.39128229
   0.16666667  0.16666667  0.46376076
   0.66666667  0.16666667  0.46376076
   0.16666667  0.66666667  0.46376076
   0.66666667  0.66666667  0.46376076
   0.82694533  0.33652321  0.53900427
   0.32026082  0.33943499  0.53788615
   0.82807523  0.83595749  0.54281785
   0.32025983  0.84030129  0.53788641
   0.01026382  0.00553027  0.61273932
   0.53995071  0.98002032  0.61898538
   0.01026005  0.48421039  0.61273647
   0.50169845  0.49914208  0.61717795
   0.11777901  0.19111456  0.66070111
   0.15501700  0.17252776  0.69929033
Direct configuration=    19
   0.00000000  0.00000000  0.39128229
   0.50000000  0.00000000  0.39128229
   0.00000000  0.50000000  0.39128229
   0.50000000  0.50000000  0.39128229
   0.16666667  0.16666667  0.46376076
   0.66666667  0.16666667  0.46376076
   0.16666667  0.66666667  0.46376076
   0.66666667  0.66666667  0.46376076
   0.82683068  0.33658038  0.53908184
   0.32011185  0.33956859  0.53800976
   0.82824753  0.83587139  0.54299884
   0.32011063  0.84031646  0.53801007
   0.01035970  0.00551572  0.61283187
   0.54173166  0.97912971  0.61901420
   0.01035668  0.48412920  0.61282884
   0.50162847  0.49917652  0.61731162
   0.11619477  0.19190710  0.66084780
   0.15326276  0.17340593  0.69901609
Direct configuration=    20
   0.00000000  0.00000000  0.39128229
   0.50000000  0.00000000  0.39128229
   0.00000000  0.50000000  0.39128229
   0.50000000  0.50000000  0.39128229
   0.16666667  0.16666667  0.46376076
   0.66666667  0.16666667  0.46376076
   0.16666667  0.66666667  0.46376076
   0.66666667  0.66666667  0.46376076
   0.82685094  0.33657027  0.53906813
   0.32013818  0.33954498  0.53798791
   0.82821708  0.83588661  0.54296685
   0.32013700  0.84031378  0.53798821
   0.01034276  0.00551829  0.61281551
   0.54141689  0.97928712  0.61900911
   0.01033960  0.48414355  0.61281252
   0.50164084  0.49917043  0.61728799
   0.11647477  0.19176702  0.66082187
   0.15357280  0.17325072  0.69906456
Direct configuration=    21
   0.00000000  0.00000000  0.39128229
   0.50000000  0.00000000  0.39128229
   0.00000000  0.50000000  0.39128229
   0.50000000  0.50000000  0.39128229
   0.16666667  0.16666667  0.46376076
   0.66666667  0.16666667  0.46376076
   0.16666667  0.66666667  0.46376076
   0.66666667  0.66666667  0.46376076
   0.82691969  0.33653564  0.53907363
   0.32012453  0.33949623  0.53799049
   0.82834980  0.83582000  0.54297206
   0.32012330  0.84037554  0.53799082
   0.01043125  0.00544899  0.61281536
   0.54146648  0.97926395  0.61900099
   0.01042835  0.48412369  0.61281234
   0.50158175  0.49920297  0.61730520
   0.11617983  0.19191431  0.66084241
   0.15306049  0.17350651  0.69908927
Direct configuration=    22
   0.00000000  0.00000000  0.39128229
   0.50000000  0.00000000  0.39128229
   0.00000000  0.50000000  0.39128229
   0.50000000  0.50000000  0.39128229
   0.16666667  0.16666667  0.46376076
   0.66666667  0.16666667  0.46376076
   0.16666667  0.66666667  0.46376076
   0.66666667  0.66666667  0.46376076
   0.82712592  0.33643175  0.53909011
   0.32008358  0.33934999  0.53799820
   0.82874795  0.83562019  0.54298769
   0.32008220  0.84056084  0.53799865
   0.01069675  0.00524110  0.61281489
   0.54161523  0.97919443  0.61897665
   0.01069461  0.48406411  0.61281182
   0.50140447  0.49930057  0.61735681
   0.11529500  0.19235616  0.66090403
   0.15152354  0.17427389  0.69916340
Direct configuration=    23
   0.00000000  0.00000000  0.39128229
   0.50000000  0.00000000  0.39128229
   0.00000000  0.50000000  0.39128229
   0.50000000  0.50000000  0.39128229
   0.16666667  0.16666667  0.46376076
   0.66666667  0.16666667  0.46376076
   0.16666667  0.66666667  0.46376076
   0.66666667  0.66666667  0.46376076
   0.82753840  0.33622396  0.53912306
   0.32000167  0.33905751  0.53801364
   0.82954426  0.83522057  0.54301895
   0.32000001  0.84093142  0.53801430
   0.01122773  0.00482530  0.61281395
   0.54191274  0.97905541  0.61892797
   0.01122711  0.48394494  0.61281077
   0.50104992  0.49949577  0.61746004
   0.11352535  0.19323987  0.66102727
   0.14844964  0.17580863  0.69931165
Direct configuration=    24
   0.00000000  0.00000000  0.39128229
   0.50000000  0.00000000  0.39128229
   0.00000000  0.50000000  0.39128229
   0.50000000  0.50000000  0.39128229
   0.16666667  0.16666667  0.46376076
   0.66666667  0.16666667  0.46376076
   0.16666667  0.66666667  0.46376076
   0.66666667  0.66666667  0.46376076
   0.82836334  0.33580839  0.53918898
   0.31983786  0.33847254  0.53804451
   0.83113687  0.83442132  0.54308147
   0.31983564  0.84167260  0.53804560
   0.01228970  0.00399371  0.61281206
   0.54250776  0.97877735  0.61883060
   0.01229211  0.48370662  0.61280867
   0.50034081  0.49988618  0.61766649
   0.10998605  0.19500729  0.66127374
   0.14230185  0.17887811  0.69960816
Direct configuration=    25
   0.00000000  0.00000000  0.39128229
   0.50000000  0.00000000  0.39128229
   0.00000000  0.50000000  0.39128229
   0.50000000  0.50000000  0.39128229
   0.16666667  0.16666667  0.46376076
   0.66666667  0.16666667  0.46376076
   0.16666667  0.66666667  0.46376076
   0.66666667  0.66666667  0.46376076
   0.83001323  0.33497725  0.53932081
   0.31951023  0.33730262  0.53810625
   0.83432210  0.83282282  0.54320650
   0.31950688  0.84315494  0.53810821
   0.01441363  0.00233053  0.61280830
   0.54369780  0.97822125  0.61863586
   0.01442212  0.48322997  0.61280448
   0.49892259  0.50066700  0.61807939
   0.10290745  0.19854213  0.66176669
   0.13000627  0.18501707  0.70020119
Direct configuration=    26
   0.00000000  0.00000000  0.39128229
   0.50000000  0.00000000  0.39128229
   0.00000000  0.50000000  0.39128229
   0.50000000  0.50000000  0.39128229
   0.16666667  0.16666667  0.46376076
   0.66666667  0.16666667  0.46376076
   0.16666667  0.66666667  0.46376076
   0.66666667  0.66666667  0.46376076
   0.82994304  0.33501218  0.53933118
   0.31988232  0.33736299  0.53809438
   0.83458383  0.83269147  0.54318879
   0.31987836  0.84272250  0.53809626
   0.01456537  0.00235501  0.61282583
   0.54354103  0.97830723  0.61863226
   0.01457627  0.48305708  0.61282203
   0.49910820  0.50056635  0.61811860
   0.10176262  0.19911517  0.66186257
   0.12795544  0.18604110  0.70027608
Direct configuration=    27
   0.00000000  0.00000000  0.39128229
   0.50000000  0.00000000  0.39128229
   0.00000000  0.50000000  0.39128229
   0.50000000  0.50000000  0.39128229
   0.16666667  0.16666667  0.46376076
   0.66666667  0.16666667  0.46376076
   0.16666667  0.66666667  0.46376076
   0.66666667  0.66666667  0.46376076
   0.82973246  0.33511699  0.53936227
   0.32099860  0.33754412  0.53805878
   0.83536899  0.83229743  0.54313564
   0.32099280  0.84142517  0.53806041
   0.01502058  0.00242845  0.61287842
   0.54307073  0.97856518  0.61862144
   0.01503872  0.48253841  0.61287469
   0.49966503  0.50026439  0.61823625
   0.09832813  0.20083430  0.66215021
   0.12180294  0.18911319  0.70050075
Direct configuration=    28
   0.00000000  0.00000000  0.39128229
   0.50000000  0.00000000  0.39128229
   0.00000000  0.50000000  0.39128229
   0.50000000  0.50000000  0.39128229
   0.16666667  0.16666667  0.46376076
   0.66666667  0.16666667  0.46376076
   0.16666667  0.66666667  0.46376076
   0.66666667  0.66666667  0.46376076
   0.82931129  0.33532660  0.53942447
   0.32323117  0.33790637  0.53798759
   0.83693931  0.83150934  0.54302936
   0.32322168  0.83883051  0.53798872
   0.01593101  0.00257532  0.61298361
   0.54213013  0.97908109  0.61859981
   0.01596362  0.48150108  0.61298002
   0.50077868  0.49966046  0.61847154
   0.09145914  0.20427255  0.66272548
   0.10949794  0.19525737  0.70095011
Direct configuration=    29
   0.00000000  0.00000000  0.39128229
   0.50000000  0.00000000  0.39128229
   0.00000000  0.50000000  0.39128229
   0.50000000  0.50000000  0.39128229
   0.16666667  0.16666667  0.46376076
   0.66666667  0.16666667  0.46376076
   0.16666667  0.66666667  0.46376076
   0.66666667  0.66666667  0.46376076
   0.82929043  0.33533702  0.53942857
   0.32341670  0.33791802  0.53798237
   0.83704243  0.83145756  0.54301922
   0.32340743  0.83863312  0.53798346
   0.01598797  0.00259924  0.61299271
   0.54204224  0.97912725  0.61859986
   0.01602118  0.48142233  0.61298915
   0.50088642  0.49960365  0.61848859
   0.09088937  0.20455778  0.66274369
   0.10852902  0.19574117  0.70101219
Direct configuration=    30
   0.00000000  0.00000000  0.39128229
   0.50000000  0.00000000  0.39128229
   0.00000000  0.50000000  0.39128229
   0.50000000  0.50000000  0.39128229
   0.16666667  0.16666667  0.46376076
   0.66666667  0.16666667  0.46376076
   0.16666667  0.66666667  0.46376076
   0.66666667  0.66666667  0.46376076
   0.82922786  0.33536825  0.53944090
   0.32397330  0.33795299  0.53796673
   0.83735177  0.83130222  0.54298879
   0.32396467  0.83804095  0.53796770
   0.01615884  0.00267099  0.61302000
   0.54177855  0.97926572  0.61860001
   0.01619387  0.48118609  0.61301655
   0.50120966  0.49943320  0.61853971
   0.08918003  0.20541350  0.66279830
   0.10562224  0.19719258  0.70119842
Direct configuration=    31
   0.00000000  0.00000000  0.39128229
   0.50000000  0.00000000  0.39128229
   0.00000000  0.50000000  0.39128229
   0.50000000  0.50000000  0.39128229
   0.16666667  0.16666667  0.46376076
   0.66666667  0.16666667  0.46376076
   0.16666667  0.66666667  0.46376076
   0.66666667  0.66666667  0.46376076
   0.82910271  0.33543072  0.53946554
   0.32508649  0.33802291  0.53793545
   0.83797046  0.83099154  0.54292795
   0.32507915  0.83685662  0.53793618
   0.01650059  0.00281450  0.61307460
   0.54125119  0.97954267  0.61860030
   0.01653926  0.48071359  0.61307134
   0.50185614  0.49909231  0.61864196
   0.08576136  0.20712493  0.66290751
   0.09980868  0.20009540  0.70157090
Direct configuration=    32
   0.00000000  0.00000000  0.39128229
   0.50000000  0.00000000  0.39128229
   0.00000000  0.50000000  0.39128229
   0.50000000  0.50000000  0.39128229
   0.16666667  0.16666667  0.46376076
   0.66666667  0.16666667  0.46376076
   0.16666667  0.66666667  0.46376076
   0.66666667  0.66666667  0.46376076
   0.82913121  0.33541649  0.53945993
   0.32483299  0.33800699  0.53794257
   0.83782957  0.83106229  0.54294180
   0.32482535  0.83712632  0.53794336
   0.01642277  0.00278182  0.61306217
   0.54137128  0.97947961  0.61860023
   0.01646061  0.48082119  0.61305886
   0.50170893  0.49916994  0.61861868
   0.08653987  0.20673520  0.66288264
   0.10113256  0.19943436  0.70148608
Direct configuration=    33
   0.00000000  0.00000000  0.39128229
   0.50000000  0.00000000  0.39128229
   0.00000000  0.50000000  0.39128229
   0.50000000  0.50000000  0.39128229
   0.16666667  0.16666667  0.46376076
   0.66666667  0.16666667  0.46376076
   0.16666667  0.66666667  0.46376076
   0.66666667  0.66666667  0.46376076
   0.82918404  0.33539014  0.53946044
   0.32495972  0.33794263  0.53794243
   0.83784413  0.83105483  0.54293231
   0.32495237  0.83706373  0.53794327
   0.01642175  0.00281442  0.61306967
   0.54128516  0.97952176  0.61860525
   0.01645820  0.48079227  0.61306646
   0.50180345  0.49912282  0.61862605
   0.08613248  0.20693916  0.66290608
   0.10047551  0.19976249  0.70150984
Direct configuration=    34
   0.00000000  0.00000000  0.39128229
   0.50000000  0.00000000  0.39128229
   0.00000000  0.50000000  0.39128229
   0.50000000  0.50000000  0.39128229
   0.16666667  0.16666667  0.46376076
   0.66666667  0.16666667  0.46376076
   0.16666667  0.66666667  0.46376076
   0.66666667  0.66666667  0.46376076
   0.82934253  0.33531109  0.53946198
   0.32533991  0.33774954  0.53794199
   0.83788780  0.83103246  0.54290382
   0.32533342  0.83687596  0.53794298
   0.01641868  0.00291222  0.61309219
   0.54102680  0.97964822  0.61862031
   0.01645099  0.48070549  0.61308926
   0.50208701  0.49898148  0.61864817
   0.08491034  0.20755107  0.66297641
   0.09850436  0.20074689  0.70158111
Direct configuration=    35
   0.00000000  0.00000000  0.39128229
   0.50000000  0.00000000  0.39128229
   0.00000000  0.50000000  0.39128229
   0.50000000  0.50000000  0.39128229
   0.16666667  0.16666667  0.46376076
   0.66666667  0.16666667  0.46376076
   0.16666667  0.66666667  0.46376076
   0.66666667  0.66666667  0.46376076
   0.82965952  0.33515299  0.53946506
   0.32610029  0.33736337  0.53794112
   0.83797514  0.83098771  0.54284685
   0.32609553  0.83650041  0.53794242
   0.01641254  0.00310782  0.61313722
   0.54051006  0.97990115  0.61865042
   0.01643657  0.48053194  0.61313485
   0.50265413  0.49869879  0.61869242
   0.08246604  0.20877488  0.66311707
   0.09456207  0.20271568  0.70172366
Direct configuration=    36
   0.00000000  0.00000000  0.39128229
   0.50000000  0.00000000  0.39128229
   0.00000000  0.50000000  0.39128229
   0.50000000  0.50000000  0.39128229
   0.16666667  0.16666667  0.46376076
   0.66666667  0.16666667  0.46376076
   0.16666667  0.66666667  0.46376076
   0.66666667  0.66666667  0.46376076
   0.83029348  0.33483679  0.53947121
   0.32762105  0.33659102  0.53793938
   0.83814983  0.83089822  0.54273290
   0.32761974  0.83574932  0.53794129
   0.01640027  0.00349902  0.61322729
   0.53947660  0.98040700  0.61871063
   0.01640772  0.48018484  0.61322604
   0.50378838  0.49813342  0.61878092
   0.07757745  0.21122251  0.66339838
   0.08667748  0.20665325  0.70200876
Direct configuration=    37
   0.00000000  0.00000000  0.39128229
   0.50000000  0.00000000  0.39128229
   0.00000000  0.50000000  0.39128229
   0.50000000  0.50000000  0.39128229
   0.16666667  0.16666667  0.46376076
   0.66666667  0.16666667  0.46376076
   0.16666667  0.66666667  0.46376076
   0.66666667  0.66666667  0.46376076
   0.83080997  0.33457895  0.53945773
   0.32750856  0.33632617  0.53797560
   0.83805396  0.83094661  0.54272597
   0.32751028  0.83612784  0.53797636
   0.01624938  0.00344870  0.61323144
   0.53941888  0.98042071  0.61873500
   0.01625119  0.48039089  0.61323073
   0.50370782  0.49818146  0.61876544
   0.07705531  0.21148442  0.66344395
   0.08618879  0.20689845  0.70195769
Direct configuration=    38
   0.00000000  0.00000000  0.39128229
   0.50000000  0.00000000  0.39128229
   0.00000000  0.50000000  0.39128229
   0.50000000  0.50000000  0.39128229
   0.16666667  0.16666667  0.46376076
   0.66666667  0.16666667  0.46376076
   0.16666667  0.66666667  0.46376076
   0.66666667  0.66666667  0.46376076
   0.83120010  0.33438418  0.53944755
   0.32742359  0.33612611  0.53800295
   0.83798155  0.83098317  0.54272073
   0.32742760  0.83641376  0.53800285
   0.01613540  0.00341068  0.61323458
   0.53937529  0.98043107  0.61875340
   0.01613296  0.48054653  0.61323427
   0.50364697  0.49821775  0.61875374
   0.07666091  0.21168226  0.66347837
   0.08581965  0.20708366  0.70191911
Direct configuration=    39
   0.00000000  0.00000000  0.39128229
   0.50000000  0.00000000  0.39128229
   0.00000000  0.50000000  0.39128229
   0.50000000  0.50000000  0.39128229
   0.16666667  0.16666667  0.46376076
   0.66666667  0.16666667  0.46376076
   0.16666667  0.66666667  0.46376076
   0.66666667  0.66666667  0.46376076
   0.83145990  0.33425459  0.53944003
   0.32735653  0.33600818  0.53802140
   0.83793068  0.83100901  0.54271814
   0.32736167  0.83659943  0.53802090
   0.01605331  0.00338202  0.61323623
   0.53935072  0.98043546  0.61876623
   0.01604835  0.48065944  0.61323619
   0.50359009  0.49824907  0.61874411
   0.07641280  0.21180686  0.66346532
   0.08563637  0.20717593  0.70192432
Direct configuration=    40
   0.00000000  0.00000000  0.39128229
   0.50000000  0.00000000  0.39128229
   0.00000000  0.50000000  0.39128229
   0.50000000  0.50000000  0.39128229
   0.16666667  0.16666667  0.46376076
   0.66666667  0.16666667  0.46376076
   0.16666667  0.66666667  0.46376076
   0.66666667  0.66666667  0.46376076
   0.83223927  0.33386581  0.53941747
   0.32715533  0.33565438  0.53807675
   0.83777807  0.83108653  0.54271035
   0.32716390  0.83715646  0.53807506
   0.01580703  0.00329604  0.61324118
   0.53927703  0.98044862  0.61880471
   0.01579455  0.48099817  0.61324196
   0.50341945  0.49834302  0.61871520
   0.07566847  0.21218067  0.66342618
   0.08508652  0.20745273  0.70193993
Direct configuration=    41
   0.00000000  0.00000000  0.39128229
   0.50000000  0.00000000  0.39128229
   0.00000000  0.50000000  0.39128229
   0.50000000  0.50000000  0.39128229
   0.16666667  0.16666667  0.46376076
   0.66666667  0.16666667  0.46376076
   0.16666667  0.66666667  0.46376076
   0.66666667  0.66666667  0.46376076
   0.83379802  0.33308826  0.53937236
   0.32675295  0.33494679  0.53818745
   0.83747286  0.83124157  0.54269479
   0.32676834  0.83827052  0.53818338
   0.01531446  0.00312407  0.61325107
   0.53912965  0.98047496  0.61888168
   0.01528694  0.48167564  0.61325348
   0.50307816  0.49853091  0.61865739
   0.07417983  0.21292829  0.66334791
   0.08398682  0.20800632  0.70197117
Direct configuration=    42
   0.00000000  0.00000000  0.39128229
   0.50000000  0.00000000  0.39128229
   0.00000000  0.50000000  0.39128229
   0.50000000  0.50000000  0.39128229
   0.16666667  0.16666667  0.46376076
   0.66666667  0.16666667  0.46376076
   0.16666667  0.66666667  0.46376076
   0.66666667  0.66666667  0.46376076
   0.83424136  0.33286718  0.53935226
   0.32664644  0.33486490  0.53822460