   16   16  200    1
  0.4594516E+02  0.5278552E-09  0.5278552E-09  0.3046488E-08  0.5000000E-15
   1.0000000000000000E-004
  CAR 
 Cu-Ag alloy CO adsorption (RPBE, matches
    176     10    105
 
  0.1262379E-14  0.1262379E-14  0.1262379E-14  0.6250000E-01
      1         -9.225690   1.000000
      2         -8.096639   1.000000
      3         -7.214577   1.000000
      4         -6.962863   1.000000
      5         -6.853126   1.000000
      6         -6.848663   1.000000
      7         -6.718620   1.000000
      8         -6.626288   1.000000
      9         -6.562689   1.000000
     10         -6.456119   1.000000
     11         -6.381449   1.000000
     12         -6.334470   1.000000
     13         -6.152329   1.000000
     14         -6.087318   1.000000
     15         -5.865111   1.000000
     16         -5.816384   1.000000
     17         -5.738235   1.000000
     18         -5.502354   1.000000
     19         -5.418852   1.000000
     20         -5.336503   1.000000
     21         -5.205916   1.000000
     22         -5.121162   1.000000
     23         -5.017440   1.000000
     24         -4.915205   1.000000
     25         -4.840730   1.000000
     26         -4.654752   1.000000
     27         -4.484915   1.000000
     28         -4.445621   1.000000
     29         -4.196034   1.000000
     30         -4.136017   1.000000
     31         -4.097520   1.000000
     32         -3.964046   1.000000
     33         -3.953725   1.000000
     34         -3.912234   1.000000
     35         -3.895823   1.000000
     36         -3.876779   1.000000
     37         -3.823352   1.000000
     38         -3.802716   1.000000
     39         -3.787787   1.000000
     40         -3.784960   1.000000
     41         -3.674876   1.000000
     42         -3.667497   1.000000
     43         -3.635925   1.000000
     44         -3.557557   1.000000
     45         -3.529694   1.000000
     46         -3.486389   1.000000
     47         -3.442500   1.000000
     48         -3.415090   1.000000
     49         -3.377848   1.000000
     50         -3.373404   1.000000
     51         -3.274402   1.000000
     52         -3.166905   1.000000
     53         -3.120612   1.000000
     54         -3.092174   1.000000
     55         -3.089021   1.000000
     56         -3.010943   1.000000
     57         -2.983693   1.000000
     58         -2.868871   1.000000
     59         -2.848796   1.000000
     60         -2.818936   1.000000
     61         -2.785092   1.000000
     62         -2.749487   1.000000
     63         -2.736767   1.000000
     64         -2.697069   1.000000
     65         -2.680577   1.000000
     66         -2.635113   1.000000
     67         -2.632206   1.000000
     68         -2.605130   1.000000
     69         -2.591581   1.000000
     70         -2.575986   1.000000
     71         -2.573777   1.000000
     72         -2.545599   1.000000
     73         -2.533724   1.000000
     74         -2.507268   1.000000
     75         -2.486955   1.000000
     76         -2.473959   1.000000
     77         -2.469216   1.000000
     78         -2.458773   1.000000
     79         -2.442441   1.000000
     80         -2.405284   1.000000
     81         -2.379158   1.000000
     82         -2.323090   1.000000
     83         -2.292099   1.000000
     84         -2.073357   1.000000
     85         -1.106845   0.992990
     86         -0.959998   0.648031
     87         -0.930085   0.482837
     88         -0.878077   0.218128
     89         -0.126642   0.000000
     90          0.019067   0.000000
     91          0.064712   0.000000
     92          0.455201   0.000000
     93          0.588612   0.000000
     94          0.630060   0.000000
     95          0.680690   0.000000
     96          0.854177   0.000000
     97          0.913273   0.000000
     98          2.871803   0.000000
     99          3.253540   0.000000
    100          3.266327   0.000000
    101          3.324373   0.000000
    102          3.463369   0.000000
    103          3.749639   0.000000
    104          3.976365   0.000000
    105          3.991094   0.000000
 
  0.2500000E+00  0.1272164E-14  0.1262379E-14  0.1250000E+00
      1         -8.754478   1.000000
      2         -7.672071   1.000000
      3         -7.042985   1.000000
      4         -6.915740   1.000000
      5         -6.749914   1.000000
      6         -6.713417   1.000000
      7         -6.623801   1.000000
      8         -6.506239   1.000000
      9         -6.421401   1.000000
     10         -6.349300   1.000000
     11         -6.235680   1.000000
     12         -6.162069   1.000000
     13         -6.076590   1.000000
     14         -5.965447   1.000000
     15         -5.823149   1.000000
     16         -5.736813   1.000000
     17         -5.643502   1.000000
     18         -5.500505   1.000000
     19         -5.405793   1.000000
     20         -5.317531   1.000000
     21         -5.195021   1.000000
     22         -5.116891   1.000000
     23         -4.990322   1.000000
     24         -4.910946   1.000000
     25         -4.772945   1.000000
     26         -4.646909   1.000000
     27         -4.616702   1.000000
     28         -4.508356   1.000000
     29         -4.285192   1.000000
     30         -4.185250   1.000000
     31         -4.137581   1.000000
     32         -4.043648   1.000000
     33         -4.031536   1.000000
     34         -3.999061   1.000000
     35         -3.953135   1.000000
     36         -3.923155   1.000000
     37         -3.902633   1.000000
     38         -3.838804   1.000000
     39         -3.778996   1.000000
     40         -3.729798   1.000000
     41         -3.712145   1.000000
     42         -3.692819   1.000000
     43         -3.620009   1.000000
     44         -3.602227   1.000000
     45         -3.584656   1.000000
     46         -3.545781   1.000000
     47         -3.532809   1.000000
     48         -3.494208   1.000000
     49         -3.463055   1.000000
     50         -3.415008   1.000000
     51         -3.367131   1.000000
     52         -3.260907   1.000000
     53         -3.231809   1.000000
     54         -3.199040   1.000000
     55         -3.141055   1.000000
     56         -3.118092   1.000000
     57         -3.095996   1.000000
     58         -3.076969   1.000000
     59         -3.039507   1.000000
     60         -2.990740   1.000000
     61         -2.979926   1.000000
     62         -2.941811   1.000000
     63         -2.909728   1.000000
     64         -2.876565   1.000000
     65         -2.870219   1.000000
     66         -2.847077   1.000000
     67         -2.831656   1.000000
     68         -2.782686   1.000000
     69         -2.754577   1.000000
     70         -2.715942   1.000000
     71         -2.686864   1.000000
     72         -2.676167   1.000000
     73         -2.643724   1.000000
     74         -2.642474   1.000000
     75         -2.604812   1.000000
     76         -2.590916   1.000000
     77         -2.583782   1.000000
     78         -2.571383   1.000000
     79         -2.551854   1.000000
     80         -2.520791   1.000000
     81         -2.504489   1.000000
     82         -2.477619   1.000000
     83         -2.471635   1.000000
     84         -2.433620   1.000000
     85         -2.161903   1.000000
     86         -1.425466   1.000000
     87         -1.019539   0.889154
     88         -0.955169   0.622372
     89         -0.685147   0.000227
     90         -0.382320   0.000000
     91         -0.325131   0.000000
     92         -0.066195   0.000000
     93          0.872257   0.000000
     94          0.954562   0.000000
     95          1.517343   0.000000
     96          2.165895   0.000000
     97          2.345313   0.000000
     98          3.256340   0.000000
     99          3.698578   0.000000
    100          3.771130   0.000000
    101          3.857459   0.000000
    102          4.123522   0.000000
    103          4.238374   0.000000
    104          4.392431   0.000000
    105          4.544251   0.000000
 
  0.2500000E+00  0.2500000E+00  0.1262379E-14  0.1250000E+00
      1         -8.753605   1.000000
      2         -7.673608   1.000000
      3         -7.014487   1.000000
      4         -6.863032   1.000000
      5         -6.787133   1.000000
      6         -6.747615   1.000000
      7         -6.645097   1.000000
      8         -6.539485   1.000000
      9         -6.348559   1.000000
     10         -6.315457   1.000000
     11         -6.272492   1.000000
     12         -6.182224   1.000000
     13         -6.075220   1.000000
     14         -6.029386   1.000000
     15         -5.811751   1.000000
     16         -5.726080   1.000000
     17         -5.632187   1.000000
     18         -5.488576   1.000000
     19         -5.426710   1.000000
     20         -5.332363   1.000000
     21         -5.209752   1.000000
     22         -5.117532   1.000000
     23         -4.995579   1.000000
     24         -4.904189   1.000000
     25         -4.793669   1.000000
     26         -4.647690   1.000000
     27         -4.579664   1.000000
     28         -4.497837   1.000000
     29         -4.290325   1.000000
     30         -4.237862   1.000000
     31         -4.193146   1.000000
     32         -4.098296   1.000000
     33         -4.016593   1.000000
     34         -3.984566   1.000000
     35         -3.917065   1.000000
     36         -3.855223   1.000000
     37         -3.836513   1.000000
     38         -3.807657   1.000000
     39         -3.768549   1.000000
     40         -3.732862   1.000000
     41         -3.713075   1.000000
     42         -3.693214   1.000000
     43         -3.664347   1.000000
     44         -3.596851   1.000000
     45         -3.570615   1.000000
     46         -3.560243   1.000000
     47         -3.537720   1.000000
     48         -3.491173   1.000000
     49         -3.445948   1.000000
     50         -3.391962   1.000000
     51         -3.349178   1.000000
     52         -3.286243   1.000000
     53         -3.240377   1.000000
     54         -3.198514   1.000000
     55         -3.165327   1.000000
     56         -3.132383   1.000000
     57         -3.089161   1.000000
     58         -3.066513   1.000000
     59         -3.031850   1.000000
     60         -3.012159   1.000000
     61         -2.969217   1.000000
     62         -2.954223   1.000000
     63         -2.939067   1.000000
     64         -2.875092   1.000000
     65         -2.846738   1.000000
     66         -2.826649   1.000000
     67         -2.797480   1.000000
     68         -2.792450   1.000000
     69         -2.757843   1.000000
     70         -2.720284   1.000000
     71         -2.686391   1.000000
     72         -2.676963   1.000000
     73         -2.655726   1.000000
     74         -2.638237   1.000000
     75         -2.611519   1.000000
     76         -2.591661   1.000000
     77         -2.582095   1.000000
     78         -2.563783   1.000000
     79         -2.543990   1.000000
     80         -2.529716   1.000000
     81         -2.503813   1.000000
     82         -2.475905   1.000000
     83         -2.463555   1.000000
     84         -2.416492   1.000000
     85         -2.165273   1.000000
     86         -1.434793   1.000000
     87         -1.008441   0.856584
     88         -0.962055   0.658765
     89         -0.674394   0.000127
     90         -0.362179   0.000000
     91         -0.311114   0.000000
     92         -0.083773   0.000000
     93          0.838855   0.000000
     94          0.951015   0.000000
     95          1.526783   0.000000
     96          2.192515   0.000000
     97          2.317946   0.000000
     98          3.238794   0.000000
     99          3.711207   0.000000
    100          3.732651   0.000000
    101          3.875796   0.000000
    102          4.131675   0.000000
    103          4.234854   0.000000
    104          4.414165   0.000000
    105          4.513801   0.000000
 
  0.1262379E-14  0.2500000E+00  0.1262379E-14  0.1250000E+00
      1         -8.755164   1.000000
      2         -7.675686   1.000000
      3         -7.059989   1.000000
      4         -6.884810   1.000000
      5         -6.840188   1.000000
      6         -6.750481   1.000000
      7         -6.574493   1.000000
      8         -6.440796   1.000000
      9         -6.400883   1.000000
     10         -6.306942   1.000000
     11         -6.233418   1.000000
     12         -6.178078   1.000000
     13         -6.067112   1.000000
     14         -5.987412   1.000000
     15         -5.848465   1.000000
     16         -5.744796   1.000000
     17         -5.627270   1.000000
     18         -5.477925   1.000000
     19         -5.419654   1.000000
     20         -5.293368   1.000000
     21         -5.169040   1.000000
     22         -5.102721   1.000000
     23         -5.003080   1.000000
     24         -4.891661   1.000000
     25         -4.800044   1.000000
     26         -4.639425   1.000000
     27         -4.556994   1.000000
     28         -4.541152   1.000000
     29         -4.289417   1.000000
     30         -4.242528   1.000000
     31         -4.168160   1.000000
     32         -4.113469   1.000000
     33         -4.027409   1.000000
     34         -4.006630   1.000000
     35         -3.936784   1.000000
     36         -3.882509   1.000000
     37         -3.850493   1.000000
     38         -3.821912   1.000000
     39         -3.790426   1.000000
     40         -3.754044   1.000000
     41         -3.718536   1.000000
     42         -3.668810   1.000000
     43         -3.655339   1.000000
     44         -3.620994   1.000000
     45         -3.583734   1.000000
     46         -3.569790   1.000000
     47         -3.534540   1.000000
     48         -3.510371   1.000000
     49         -3.438107   1.000000
     50         -3.402414   1.000000
     51         -3.334785   1.000000
     52         -3.310001   1.000000
     53         -3.238535   1.000000
     54         -3.190014   1.000000
     55         -3.147658   1.000000
     56         -3.133345   1.000000
     57         -3.102053   1.000000
     58         -3.078892   1.000000
     59         -3.041931   1.000000
     60         -3.002299   1.000000
     61         -2.970128   1.000000
     62         -2.943310   1.000000
     63         -2.908299   1.000000
     64         -2.894147   1.000000
     65         -2.865457   1.000000
     66         -2.843921   1.000000
     67         -2.812347   1.000000
     68         -2.783398   1.000000
     69         -2.737422   1.000000
     70         -2.723432   1.000000
     71         -2.690878   1.000000
     72         -2.668584   1.000000
     73         -2.644508   1.000000
     74         -2.629223   1.000000
     75         -2.611713   1.000000
     76         -2.597419   1.000000
     77         -2.593531   1.000000
     78         -2.568192   1.000000
     79         -2.549706   1.000000
     80         -2.535837   1.000000
     81         -2.498795   1.000000
     82         -2.486437   1.000000
     83         -2.472958   1.000000
     84         -2.387769   1.000000
     85         -2.169093   1.000000
     86         -1.416306   1.000000
     87         -0.994085   0.805676
     88         -0.974197   0.719317
     89         -0.715023   0.001020
     90         -0.372190   0.000000
     91         -0.346135   0.000000
     92         -0.059619   0.000000
     93          0.884380   0.000000
     94          0.968584   0.000000
     95          1.533186   0.000000
     96          2.240533   0.000000
     97          2.312540   0.000000
     98          3.253653   0.000000
     99          3.688361   0.000000
    100          3.714964   0.000000
    101          3.843094   0.000000
    102          4.164756   0.000000
    103          4.240372   0.000000
    104          4.380816   0.000000
    105          4.481218   0.000000
 
  0.5000000E+00  0.1275510E-14  0.1262379E-14  0.6250000E-01
      1         -7.605057   1.000000
      2         -7.512820   1.000000
      3         -6.988825   1.000000
      4         -6.877552   1.000000
      5         -6.677589   1.000000
      6         -6.641672   1.000000
      7         -6.480187   1.000000
      8         -6.394846   1.000000
      9         -6.216318   1.000000
     10         -6.129833   1.000000
     11         -6.110226   1.000000
     12         -5.952319   1.000000
     13         -5.880272   1.000000
     14         -5.864075   1.000000
     15         -5.787508   1.000000
     16         -5.662634   1.000000
     17         -5.569921   1.000000
     18         -5.501671   1.000000
     19         -5.412290   1.000000
     20         -5.361744   1.000000
     21         -5.291911   1.000000
     22         -5.215877   1.000000
     23         -5.083717   1.000000
     24         -4.958557   1.000000
     25         -4.808035   1.000000
     26         -4.672731   1.000000
     27         -4.593829   1.000000
     28         -4.541626   1.000000
     29         -4.462027   1.000000
     30         -4.354342   1.000000
     31         -4.212603   1.000000
     32         -4.176739   1.000000
     33         -4.159729   1.000000
     34         -4.094987   1.000000
     35         -4.033925   1.000000
     36         -3.982465   1.000000
     37         -3.952384   1.000000
     38         -3.922328   1.000000
     39         -3.913296   1.000000
     40         -3.850413   1.000000
     41         -3.777672   1.000000
     42         -3.716510   1.000000
     43         -3.690132   1.000000
     44         -3.656472   1.000000
     45         -3.608552   1.000000
     46         -3.578245   1.000000
     47         -3.558627   1.000000
     48         -3.539406   1.000000
     49         -3.508296   1.000000
     50         -3.466489   1.000000
     51         -3.439965   1.000000
     52         -3.429765   1.000000
     53         -3.411623   1.000000
     54         -3.408614   1.000000
     55         -3.328299   1.000000
     56         -3.300205   1.000000
     57         -3.253421   1.000000
     58         -3.229181   1.000000
     59         -3.200181   1.000000
     60         -3.169773   1.000000
     61         -3.140749   1.000000
     62         -3.117681   1.000000
     63         -3.106379   1.000000
     64         -3.082678   1.000000
     65         -3.026579   1.000000
     66         -2.999081   1.000000
     67         -2.976935   1.000000
     68         -2.964042   1.000000
     69         -2.942526   1.000000
     70         -2.933615   1.000000
     71         -2.911233   1.000000
     72         -2.876107   1.000000
     73         -2.871156   1.000000
     74         -2.817721   1.000000
     75         -2.805296   1.000000
     76         -2.770945   1.000000
     77         -2.694218   1.000000
     78         -2.614817   1.000000
     79         -2.593935   1.000000
     80         -2.551591   1.000000
     81         -2.541824   1.000000
     82         -2.533486   1.000000
     83         -2.485121   1.000000
     84         -2.424547   1.000000
     85         -2.075370   1.000000
     86         -2.017807   1.000000
     87         -1.045293   0.943660
     88         -0.934594   0.508271
     89         -0.384184   0.000000
     90         -0.376228   0.000000
     91         -0.265219   0.000000
     92         -0.058631   0.000000
     93          0.942524   0.000000
     94          1.145876   0.000000
     95          1.793531   0.000000
     96          1.898612   0.000000
     97          3.019866   0.000000
     98          3.181395   0.000000
     99          4.411900   0.000000
    100          4.504087   0.000000
    101          5.048832   0.000000
    102          5.066065   0.000000
    103          5.339103   0.000000
    104          5.473351   0.000000
    105          5.545935   0.000000
 
  0.5000000E+00  0.5000000E+00  0.1262379E-14  0.6250000E-01
      1         -7.610744   1.000000
      2         -7.488360   1.000000
      3         -6.981289   1.000000
      4         -6.848547   1.000000
      5         -6.706262   1.000000
      6         -6.608692   1.000000
      7         -6.451350   1.000000
      8         -6.386691   1.000000
      9         -6.239231   1.000000
     10         -6.179906   1.000000
     11         -6.114757   1.000000
     12         -5.979734   1.000000
     13         -5.954240   1.000000
     14         -5.917499   1.000000
     15         -5.806124   1.000000
     16         -5.766239   1.000000
     17         -5.526965   1.000000
     18         -5.452201   1.000000
     19         -5.424018   1.000000
     20         -5.392515   1.000000
     21         -5.242498   1.000000
     22         -5.129634   1.000000
     23         -5.047041   1.000000
     24         -4.989913   1.000000
     25         -4.757673   1.000000
     26         -4.716102   1.000000
     27         -4.671365   1.000000
     28         -4.554643   1.000000
     29         -4.506175   1.000000
     30         -4.344258   1.000000
     31         -4.273633   1.000000
     32         -4.184763   1.000000
     33         -4.131234   1.000000
     34         -4.101137   1.000000
     35         -3.985412   1.000000
     36         -3.954469   1.000000
     37         -3.942202   1.000000
     38         -3.907317   1.000000
     39         -3.843131   1.000000
     40         -3.806634   1.000000
     41         -3.733887   1.000000
     42         -3.725851   1.000000
     43         -3.676214   1.000000
     44         -3.646047   1.000000
     45         -3.610398   1.000000
     46         -3.577353   1.000000
     47         -3.550391   1.000000
     48         -3.530592   1.000000
     49         -3.509110   1.000000
     50         -3.465458   1.000000
     51         -3.449266   1.000000
     52         -3.434662   1.000000
     53         -3.426087   1.000000
     54         -3.371209   1.000000
     55         -3.323873   1.000000
     56         -3.310723   1.000000
     57         -3.264881   1.000000
     58         -3.221957   1.000000
     59         -3.202535   1.000000
     60         -3.188746   1.000000
     61         -3.166063   1.000000
     62         -3.128383   1.000000
     63         -3.120689   1.000000
     64         -3.077615   1.000000
     65         -3.040607   1.000000
     66         -3.003462   1.000000
     67         -2.977886   1.000000
     68         -2.969947   1.000000
     69         -2.941991   1.000000
     70         -2.931266   1.000000
     71         -2.918105   1.000000
     72         -2.868637   1.000000
     73         -2.864420   1.000000
     74         -2.798010   1.000000
     75         -2.775070   1.000000
     76         -2.732788   1.000000
     77         -2.687277   1.000000
     78         -2.656942   1.000000
     79         -2.616384   1.000000
     80         -2.576851   1.000000
     81         -2.507810   1.000000
     82         -2.493191   1.000000
     83         -2.473339   1.000000
     84         -2.427928   1.000000
     85         -2.075016   1.000000
     86         -2.012456   1.000000
     87         -1.021849   0.895207
     88         -0.971535   0.706492
     89         -0.373130   0.000000
     90         -0.361067   0.000000
     91         -0.288370   0.000000
     92         -0.050741   0.000000
     93          0.913589   0.000000
     94          1.153505   0.000000
     95          1.762022   0.000000
     96          1.914228   0.000000
     97          3.008717   0.000000
     98          3.207240   0.000000
     99          4.375579   0.000000
    100          4.573243   0.000000
    101          5.048049   0.000000
    102          5.054487   0.000000
    103          5.336763   0.000000
    104          5.420222   0.000000
    105          5.547088   0.000000
 
  0.1262379E-14  0.5000000E+00  0.1262379E-14  0.6250000E-01
      1         -7.636022   1.000000
      2         -7.489636   1.000000
      3         -7.031689   1.000000
      4         -6.859519   1.000000
      5         -6.799238   1.000000
      6         -6.574816   1.000000
      7         -6.436078   1.000000
      8         -6.368715   1.000000
      9         -6.237143   1.000000
     10         -6.110859   1.000000
     11         -6.084871   1.000000
     12         -5.976629   1.000000
     13         -5.871689   1.000000
     14         -5.789281   1.000000
     15         -5.763516   1.000000
     16         -5.627481   1.000000
     17         -5.572137   1.000000
     18         -5.442545   1.000000
     19         -5.424295   1.000000
     20         -5.360114   1.000000
     21         -5.242724   1.000000
     22         -5.178420   1.000000
     23         -5.161790   1.000000
     24         -4.887129   1.000000
     25         -4.817171   1.000000
     26         -4.767215   1.000000
     27         -4.586185   1.000000
     28         -4.551204   1.000000
     29         -4.511524   1.000000
     30         -4.359300   1.000000
     31         -4.314972   1.000000
     32         -4.193462   1.000000
     33         -4.151164   1.000000
     34         -4.082236   1.000000
     35         -4.017636   1.000000
     36         -3.972505   1.000000
     37         -3.964488   1.000000
     38         -3.925113   1.000000
     39         -3.882507   1.000000
     40         -3.794660   1.000000
     41         -3.758568   1.000000
     42         -3.737509   1.000000
     43         -3.677264   1.000000
     44         -3.660965   1.000000
     45         -3.632665   1.000000
     46         -3.607018   1.000000
     47         -3.554323   1.000000
     48         -3.542450   1.000000
     49         -3.496807   1.000000
     50         -3.487571   1.000000
     51         -3.459974   1.000000
     52         -3.440857   1.000000
     53         -3.399942   1.000000
     54         -3.388559   1.000000
     55         -3.382391   1.000000
     56         -3.339263   1.000000
     57         -3.308617   1.000000
     58         -3.260844   1.000000
     59         -3.226360   1.000000
     60         -3.192407   1.000000
     61         -3.157083   1.000000
     62         -3.147769   1.000000
     63         -3.108364   1.000000
     64         -3.091476   1.000000
     65         -3.020884   1.000000
     66         -3.001383   1.000000
     67         -2.980634   1.000000
     68         -2.941920   1.000000
     69         -2.929016   1.000000
     70         -2.900266   1.000000
     71         -2.887425   1.000000
     72         -2.861510   1.000000
     73         -2.833209   1.000000
     74         -2.804070   1.000000
     75         -2.784232   1.000000
     76         -2.714748   1.000000
     77         -2.692484   1.000000
     78         -2.667946   1.000000
     79         -2.636706   1.000000
     80         -2.584085   1.000000
     81         -2.505519   1.000000
     82         -2.493219   1.000000
     83         -2.490508   1.000000
     84         -2.400679   1.000000
     85         -2.065684   1.000000
     86         -2.039116   1.000000
     87         -0.995104   0.809616
     88         -0.979728   0.745063
     89         -0.412254   0.000000
     90         -0.378799   0.000000
     91         -0.248726   0.000000
     92         -0.025932   0.000000
     93          1.029951   0.000000
     94          1.074898   0.000000
     95          1.863599   0.000000
     96          1.871290   0.000000
     97          2.999445   0.000000
     98          3.176562   0.000000
     99          4.317934   0.000000
    100          4.545576   0.000000
    101          5.053723   0.000000
    102          5.061315   0.000000
    103          5.341057   0.000000
    104          5.425760   0.000000
    105          5.552514   0.000000
 
  0.5000000E+00  0.2500000E+00  0.1262379E-14  0.1250000E+00
      1         -7.893601   1.000000
      2         -7.042175   1.000000
      3         -6.967620   1.000000
      4         -6.883701   1.000000
      5         -6.695703   1.000000
      6         -6.573409   1.000000
      7         -6.469003   1.000000
      8         -6.385665   1.000000
      9         -6.265339   1.000000
     10         -6.201049   1.000000
     11         -6.099581   1.000000
     12         -6.034261   1.000000
     13         -5.946576   1.000000
     14         -5.865613   1.000000
     15         -5.780939   1.000000
     16         -5.752185   1.000000
     17         -5.581525   1.000000
     18         -5.475164   1.000000
     19         -5.440055   1.000000
     20         -5.357985   1.000000
     21         -5.266892   1.000000
     22         -5.226957   1.000000
     23         -5.051051   1.000000
     24         -5.013917   1.000000
     25         -4.905420   1.000000
     26         -4.725976   1.000000
     27         -4.593191   1.000000
     28         -4.488466   1.000000
     29         -4.403665   1.000000
     30         -4.328376   1.000000
     31         -4.223746   1.000000
     32         -4.171831   1.000000
     33         -4.106897   1.000000
     34         -4.081941   1.000000
     35         -4.056719   1.000000
     36         -4.026323   1.000000
     37         -3.970293   1.000000
     38         -3.959954   1.000000
     39         -3.886751   1.000000
     40         -3.857860   1.000000
     41         -3.812434   1.000000
     42         -3.781514   1.000000
     43         -3.700133   1.000000
     44         -3.672590   1.000000
     45         -3.637666   1.000000
     46         -3.599185   1.000000
     47         -3.561853   1.000000
     48         -3.521661   1.000000
     49         -3.502132   1.000000
     50         -3.458407   1.000000
     51         -3.445193   1.000000
     52         -3.410680   1.000000
     53         -3.398085   1.000000
     54         -3.356959   1.000000
     55         -3.323476   1.000000
     56         -3.309451   1.000000