       N       E                     dE             d eps       ncg     rms          rms(c)
DAV:   1     0.159370161886E+04    0.15937E+04   -0.66544E+04  2100   0.158E+03
DAV:   2     0.160050979261E+03   -0.14337E+04   -0.13466E+04  2174   0.398E+02
DAV:   3    -0.376228477124E+02   -0.19767E+03   -0.17802E+03  2342   0.199E+02
DAV:   4    -0.513853934982E+02   -0.13763E+02   -0.13531E+02  2816   0.599E+01
DAV:   5    -0.516789601608E+02   -0.29357E+00   -0.29278E+00  2624   0.853E+00    0.281E+01
DAV:   6    -0.484486277038E+02    0.32303E+01   -0.11057E+02  2536   0.117E+02    0.156E+01
DAV:   7    -0.428826844244E+02    0.55659E+01   -0.28708E+01  2479   0.965E+01    0.792E+00
DAV:   8    -0.433593913216E+02   -0.47671E+00   -0.52440E+00  3231   0.268E+01    0.702E+00
DAV:   9    -0.432306147605E+02    0.12878E+00   -0.24190E+00  2600   0.456E+01    0.442E+00
DAV:  10    -0.431558065077E+02    0.74808E-01   -0.17944E+00  3232   0.285E+01    0.289E+00
DAV:  11    -0.430517921982E+02    0.10401E+00   -0.43485E-01  3000   0.129E+01    0.136E+00
DAV:  12    -0.430327684230E+02    0.19024E-01   -0.16839E-01  3224   0.675E+00    0.355E-01
DAV:  13    -0.430341155419E+02   -0.13471E-02   -0.44552E-02  2880   0.400E+00    0.167E-01
DAV:  14    -0.430342799316E+02   -0.16439E-03   -0.11547E-02  2400   0.166E+00    0.130E-01
DAV:  15    -0.430341094145E+02    0.17052E-03   -0.26284E-03  2408   0.816E-01    0.124E-01
DAV:  16    -0.430336283792E+02    0.48104E-03   -0.15783E-03  2584   0.655E-01    0.343E-02
DAV:  17    -0.430336628744E+02   -0.34495E-04   -0.44643E-04  3023   0.182E-01    0.343E-02
DAV:  18    -0.430337168395E+02   -0.53965E-04   -0.76344E-05  2424   0.200E-01    0.184E-02
DAV:  19    -0.430338977420E+02   -0.18090E-03   -0.71263E-05  2901   0.134E-01    0.130E-02
DAV:  20    -0.430340842135E+02   -0.18647E-03   -0.51240E-05  2589   0.115E-01    0.157E-02
DAV:  21    -0.430341750947E+02   -0.90881E-04   -0.25063E-05  2624   0.876E-02    0.104E-02
DAV:  22    -0.430342377542E+02   -0.62659E-04   -0.10268E-05  2304   0.564E-02    0.843E-03
DAV:  23    -0.430343348127E+02   -0.97059E-04   -0.12858E-05  2501   0.476E-02    0.420E-03
DAV:  24    -0.430343861531E+02   -0.51340E-04   -0.46880E-06  1656   0.270E-02    0.351E-03
DAV:  25    -0.430344154631E+02   -0.29310E-04   -0.30819E-06  1502   0.261E-02    0.323E-03
DAV:  26    -0.430344478366E+02   -0.32373E-04   -0.21804E-06  1400   0.171E-02    0.164E-03
DAV:  27    -0.430344628707E+02   -0.15034E-04   -0.75463E-07  1358   0.123E-02    0.145E-03
DAV:  28    -0.430344799319E+02   -0.17061E-04   -0.77511E-07  1278   0.127E-02    0.994E-04
DAV:  29    -0.430344922192E+02   -0.12287E-04   -0.63533E-07  1325   0.801E-03    0.836E-04
DAV:  30    -0.430344989545E+02   -0.67353E-05   -0.32274E-07  1326   0.627E-03    0.592E-04
DAV:  31    -0.430345006363E+02   -0.16818E-05   -0.11827E-07  1334   0.388E-03    0.377E-04
DAV:  32    -0.430345028799E+02   -0.22436E-05   -0.81269E-08  1294   0.349E-03    0.293E-04
DAV:  33    -0.430345036359E+02   -0.75600E-06   -0.47431E-08  1262   0.246E-03
   1 F= -.43034504E+02 E0= -.43000019E+02  d E =-.430345E+02
       N       E                     dE             d eps       ncg     rms          rms(c)
DAV:   1    -0.430331904978E+02    0.13124E-02   -0.52068E+01  2105   0.200E+01    0.666E-01
DAV:   2    -0.431573564012E+02   -0.12417E+00   -0.12910E+00  3216   0.852E+00    0.901E-01
DAV:   3    -0.431513669540E+02    0.59894E-02   -0.41491E-02  2576   0.445E+00    0.521E-01
DAV:   4    -0.431515937998E+02   -0.22685E-03   -0.93541E-03  3032   0.342E+00    0.443E-01
DAV:   5    -0.431506132672E+02    0.98053E-03   -0.82783E-03  2720   0.413E+00    0.325E-01
DAV:   6    -0.431488083815E+02    0.18049E-02   -0.70248E-03  2822   0.280E+00    0.134E-01
DAV:   7    -0.431490077904E+02   -0.19941E-03   -0.38332E-03  2992   0.992E-01    0.613E-02
DAV:   8    -0.431489817935E+02    0.25997E-04   -0.10612E-03  2398   0.618E-01    0.573E-02
DAV:   9    -0.431489628771E+02    0.18916E-04   -0.40054E-04  2552   0.347E-01    0.346E-02
DAV:  10    -0.431489452259E+02    0.17651E-04   -0.12819E-04  2630   0.242E-01    0.111E-02
DAV:  11    -0.431489461812E+02   -0.95536E-06   -0.35775E-05  2784   0.119E-01    0.113E-02
DAV:  12    -0.431489454034E+02    0.77780E-06   -0.14049E-05  2168   0.881E-02    0.391E-03
DAV:  13    -0.431489455949E+02   -0.19144E-06   -0.25609E-06  1344   0.226E-02
   2 F= -.43148946E+02 E0= -.43115068E+02  d E =-.114442E+00
       N       E                     dE             d eps       ncg     rms          rms(c)
DAV:   1    -0.430698963564E+02    0.79049E-01   -0.51517E+01  2104   0.198E+01    0.594E-01
DAV:   2    -0.431901655984E+02   -0.12027E+00   -0.12486E+00  3230   0.839E+00    0.852E-01
DAV:   3    -0.431844114335E+02    0.57542E-02   -0.39388E-02  2592   0.435E+00    0.474E-01
DAV:   4    -0.431841577619E+02    0.25367E-03   -0.77007E-03  3056   0.275E+00    0.403E-01
DAV:   5    -0.431833113586E+02    0.84640E-03   -0.56093E-03  2792   0.312E+00    0.304E-01
DAV:   6    -0.431820055390E+02    0.13058E-02   -0.51798E-03  2774   0.230E+00    0.151E-01
DAV:   7    -0.431820933701E+02   -0.87831E-04   -0.35893E-03  3040   0.947E-01    0.523E-02
DAV:   8    -0.431820961342E+02   -0.27641E-05   -0.90118E-04  2399   0.554E-01    0.524E-02
DAV:   9    -0.431820860741E+02    0.10060E-04   -0.37026E-04  2576   0.338E-01    0.327E-02
DAV:  10    -0.431820684601E+02    0.17614E-04   -0.11167E-04  2568   0.238E-01    0.101E-02
DAV:  11    -0.431820690210E+02   -0.56089E-06   -0.31019E-05  2720   0.973E-02    0.955E-03
DAV:  12    -0.431820688067E+02    0.21432E-06   -0.11528E-05  2135   0.767E-02    0.379E-03
DAV:  13    -0.431820690767E+02   -0.27008E-06   -0.19045E-06  1320   0.208E-02
   3 F= -.43182069E+02 E0= -.43148958E+02  d E =-.147565E+00
       N       E                     dE             d eps       ncg     rms          rms(c)
DAV:   1    -0.431553400906E+02    0.26729E-01   -0.42008E+01  2104   0.178E+01    0.488E-01
DAV:   2    -0.432530855472E+02   -0.97745E-01   -0.10122E+00  3202   0.711E+00    0.707E-01
DAV:   3    -0.432487489963E+02    0.43366E-02   -0.28583E-02  2608   0.316E+00    0.378E-01
DAV:   4    -0.432484079893E+02    0.34101E-03   -0.55884E-03  2880   0.206E+00    0.327E-01
DAV:   5    -0.432477349913E+02    0.67300E-03   -0.32503E-03  2712   0.239E+00    0.252E-01
DAV:   6    -0.432469178825E+02    0.81711E-03   -0.30411E-03  3102   0.180E+00    0.153E-01
DAV:   7    -0.432467914698E+02    0.12641E-03   -0.26854E-03  3315   0.914E-01    0.524E-02
DAV:   8    -0.432468212281E+02   -0.29758E-04   -0.62056E-04  2448   0.418E-01    0.417E-02
DAV:   9    -0.432468283927E+02   -0.71646E-05   -0.30384E-04  2536   0.320E-01    0.256E-02
DAV:  10    -0.432468153126E+02    0.13080E-04   -0.50926E-05  2456   0.192E-01    0.104E-02
DAV:  11    -0.432468168038E+02   -0.14913E-05   -0.24862E-05  2592   0.986E-02    0.808E-03
DAV:  12    -0.432468167352E+02    0.68685E-07   -0.12827E-05  2096   0.759E-02    0.445E-03
DAV:  13    -0.432468166667E+02    0.68510E-07   -0.17864E-06  1248   0.243E-02
   4 F= -.43246817E+02 E0= -.43214444E+02  d E =-.647476E-01
       N       E                     dE             d eps       ncg     rms          rms(c)
DAV:   1    -0.428009819390E+02    0.44583E+00   -0.19597E+02  2104   0.395E+01    0.140E+00
DAV:   2    -0.433386985852E+02   -0.53772E+00   -0.55443E+00  3213   0.159E+01    0.166E+00
DAV:   3    -0.433149619254E+02    0.23737E-01   -0.15258E-01  2592   0.905E+00    0.880E-01
DAV:   4    -0.433149887556E+02   -0.26830E-04   -0.35445E-02  3032   0.582E+00    0.761E-01
DAV:   5    -0.433120252479E+02    0.29635E-02   -0.15445E-02  3102   0.503E+00    0.628E-01
DAV:   6    -0.433086220631E+02    0.34032E-02   -0.11830E-02  2998   0.333E+00    0.434E-01
DAV:   7    -0.433074219777E+02    0.12001E-02   -0.11706E-02  3212   0.168E+00    0.156E-01
DAV:   8    -0.433073994012E+02    0.22576E-04   -0.25418E-03  2439   0.877E-01    0.897E-02
DAV:   9    -0.433074741480E+02   -0.74747E-04   -0.99127E-04  2552   0.497E-01    0.590E-02
DAV:  10    -0.433074658721E+02    0.82758E-05   -0.32222E-04  2528   0.386E-01    0.225E-02
DAV:  11    -0.433074710545E+02   -0.51824E-05   -0.72399E-05  2712   0.206E-01    0.182E-02
DAV:  12    -0.433074701448E+02    0.90976E-06   -0.46646E-05  2496   0.174E-01    0.760E-03
DAV:  13    -0.433074717607E+02   -0.16159E-05   -0.94776E-06  2088   0.498E-02    0.445E-03
DAV:  14    -0.433074725465E+02   -0.78583E-06   -0.23868E-06  1472   0.355E-02
   5 F= -.43307473E+02 E0= -.43276634E+02  d E =-.125403E+00
       N       E                     dE             d eps       ncg     rms          rms(c)
DAV:   1    -0.432996939621E+02    0.77778E-02   -0.55356E+00  2105   0.636E+00    0.127E-01
DAV:   2    -0.433092657507E+02   -0.95718E-02   -0.98069E-02  3173   0.210E+00    0.173E-01
DAV:   3    -0.433090815737E+02    0.18418E-03   -0.21744E-03  2568   0.647E-01    0.103E-01
DAV:   4    -0.433090117422E+02    0.69831E-04   -0.34131E-04  2552   0.385E-01    0.893E-02
DAV:   5    -0.433089263069E+02    0.85435E-04   -0.24573E-04  2622   0.415E-01    0.582E-02
DAV:   6    -0.433089184787E+02    0.78281E-05   -0.27908E-04  3558   0.388E-01    0.329E-02
DAV:   7    -0.433089000635E+02    0.18415E-04   -0.97345E-05  2723   0.410E-01    0.174E-02
DAV:   8    -0.433088976486E+02    0.24149E-05   -0.35544E-05  2858   0.162E-01    0.112E-02
DAV:   9    -0.433088980489E+02   -0.40038E-06   -0.18417E-05  2440   0.808E-02    0.628E-03
DAV:  10    -0.433088985807E+02   -0.53179E-06   -0.59073E-06  2038   0.383E-02
   6 F= -.43308899E+02 E0= -.43278303E+02  d E =-.126830E+00
       N       E                     dE             d eps       ncg     rms          rms(c)
DAV:   1    -0.432578062488E+02    0.51092E-01   -0.36206E+01  2105   0.171E+01    0.449E-01
DAV:   2    -0.433393231769E+02   -0.81517E-01   -0.84772E-01  3213   0.647E+00    0.666E-01
DAV:   3    -0.433350174598E+02    0.43057E-02   -0.22424E-02  2624   0.276E+00    0.346E-01
DAV:   4    -0.433346489905E+02    0.36847E-03   -0.46155E-03  3000   0.167E+00    0.302E-01
DAV:   5    -0.433341565802E+02    0.49241E-03   -0.29039E-03  2672   0.218E+00    0.228E-01
DAV:   6    -0.433334916465E+02    0.66493E-03   -0.25200E-03  3453   0.161E+00    0.150E-01
DAV:   7    -0.433333208319E+02    0.17081E-03   -0.22559E-03  3442   0.893E-01    0.538E-02
DAV:   8    -0.433333472635E+02   -0.26432E-04   -0.58556E-04  2599   0.413E-01    0.385E-02
DAV:   9    -0.433333542547E+02   -0.69913E-05   -0.28343E-04  2592   0.290E-01    0.245E-02
DAV:  10    -0.433333434673E+02    0.10787E-04   -0.33150E-05  2624   0.145E-01    0.107E-02
DAV:  11    -0.433333448144E+02   -0.13471E-05   -0.25546E-05  2560   0.861E-02    0.654E-03
DAV:  12    -0.433333450599E+02   -0.24558E-06   -0.10062E-05  2024   0.612E-02    0.454E-03
DAV:  13    -0.433333451967E+02   -0.13676E-06   -0.15022E-06  1352   0.237E-02
   7 F= -.43333345E+02 E0= -.43303181E+02  d E =-.244466E-01
       N       E                     dE             d eps       ncg     rms          rms(c)
DAV:   1    -0.432729293300E+02    0.60416E-01   -0.32398E+01  2105   0.162E+01    0.414E-01
DAV:   2    -0.433441078676E+02   -0.71179E-01   -0.74002E-01  3202   0.602E+00    0.616E-01
DAV:   3    -0.433403678117E+02    0.37401E-02   -0.19600E-02  2616   0.250E+00    0.319E-01
DAV:   4    -0.433400309207E+02    0.33689E-03   -0.40335E-03  2984   0.147E+00    0.277E-01
DAV:   5    -0.433396432500E+02    0.38767E-03   -0.25069E-03  2648   0.197E+00    0.211E-01
DAV:   6    -0.433390783618E+02    0.56489E-03   -0.20695E-03  3405   0.151E+00    0.142E-01
DAV:   7    -0.433389065914E+02    0.17177E-03   -0.19836E-03  3483   0.845E-01    0.519E-02
DAV:   8    -0.433389290214E+02   -0.22430E-04   -0.52740E-04  2647   0.387E-01    0.364E-02
DAV:   9    -0.433389346117E+02   -0.55904E-05   -0.25565E-04  2584   0.273E-01    0.227E-02
DAV:  10    -0.433389267219E+02    0.78898E-05   -0.27873E-05  2776   0.126E-01    0.103E-02
DAV:  11    -0.433389279292E+02   -0.12072E-05   -0.24587E-05  2472   0.873E-02    0.605E-03
DAV:  12    -0.433389282119E+02   -0.28277E-06   -0.87128E-06  2000   0.562E-02
   8 F= -.43338928E+02 E0= -.43309174E+02  d E =-.300296E-01
       N       E                     dE             d eps       ncg     rms          rms(c)
DAV:   1    -0.432960601325E+02    0.42868E-01   -0.24643E+01  2123   0.147E+01    0.364E-01
DAV:   2    -0.433522936699E+02   -0.56234E-01   -0.58167E-01  3220   0.535E+00    0.545E-01
DAV:   3    -0.433492361370E+02    0.30575E-02   -0.15412E-02  2560   0.243E+00    0.285E-01
DAV:   4    -0.433489357591E+02    0.30038E-03   -0.33488E-03  2880   0.124E+00    0.247E-01
DAV:   5    -0.433486968973E+02    0.23886E-03   -0.21641E-03  2656   0.178E+00    0.190E-01
DAV:   6    -0.433481810899E+02    0.51581E-03   -0.15992E-03  3413   0.138E+00    0.126E-01
DAV:   7    -0.433480656778E+02    0.11541E-03   -0.16321E-03  3490   0.724E-01    0.475E-02
DAV:   8    -0.433480709078E+02   -0.52300E-05   -0.36828E-04  2584   0.375E-01    0.291E-02
DAV:   9    -0.433480747183E+02   -0.38106E-05   -0.16808E-04  2584   0.204E-01    0.179E-02
DAV:  10    -0.433480726941E+02    0.20242E-05   -0.32802E-05  2528   0.124E-01    0.956E-03
DAV:  11    -0.433480728849E+02   -0.19078E-06   -0.17228E-05  2200   0.830E-02    0.480E-03
DAV:  12    -0.433480730081E+02   -0.12325E-06   -0.37265E-06  1808   0.338E-02
   9 F= -.43348073E+02 E0= -.43318810E+02  d E =-.914480E-02
       N       E                     dE             d eps       ncg     rms          rms(c)
DAV:   1    -0.433400205658E+02    0.80523E-02   -0.47785E+00  2115   0.642E+00    0.133E-01
DAV:   2    -0.433490585784E+02   -0.90380E-02   -0.92829E-02  3202   0.210E+00    0.196E-01
DAV:   3    -0.433487233092E+02    0.33527E-03   -0.22902E-03  2592   0.791E-01    0.110E-01
DAV:   4    -0.433486625068E+02    0.60802E-04   -0.48181E-04  2632   0.401E-01    0.931E-02
DAV:   5    -0.433485836386E+02    0.78868E-04   -0.28095E-04  2599   0.467E-01    0.610E-02
DAV:   6    -0.433486363817E+02   -0.52743E-04   -0.34797E-04  3726   0.705E-01    0.590E-02
DAV:   7    -0.433485436107E+02    0.92771E-04   -0.22960E-04  3297   0.631E-01    0.156E-02
DAV:   8    -0.433485472830E+02   -0.36723E-05   -0.87884E-05  3211   0.143E-01    0.113E-02
DAV:   9    -0.433485477905E+02   -0.50754E-06   -0.24647E-05  2296   0.785E-02    0.807E-03
DAV:  10    -0.433485473873E+02    0.40318E-06   -0.74924E-06  2134   0.430E-02
  10 F= -.43348547E+02 E0= -.43319498E+02  d E =-.961918E-02
       N       E                     dE             d eps       ncg     rms          rms(c)
DAV:   1    -0.433482919249E+02    0.25587E-03   -0.19634E-01  2119   0.130E+00    0.260E-02
DAV:   2    -0.433486250566E+02   -0.33313E-03   -0.33593E-03  3148   0.463E-01    0.354E-02
DAV:   3    -0.433486187402E+02    0.63164E-05   -0.15368E-04  2558   0.306E-01    0.194E-02
DAV:   4    -0.433486170417E+02    0.16985E-05   -0.25240E-05  2638   0.148E-01    0.168E-02
DAV:   5    -0.433486160918E+02    0.94986E-06   -0.13576E-05  2364   0.986E-02    0.128E-02
DAV:   6    -0.433486170029E+02   -0.91112E-06   -0.18033E-05  3146   0.625E-02    0.500E-03
DAV:   7    -0.433486170766E+02   -0.73662E-07   -0.35538E-06  1812   0.476E-02
  11 F= -.43348617E+02 E0= -.43319531E+02  d E =-.968886E-02
       N       E                     dE             d eps       ncg     rms          rms(c)
DAV:   1    -0.433445638793E+02    0.40531E-02   -0.36205E+00  2106   0.573E+00    0.114E-01
DAV:   2    -0.433520537895E+02   -0.74899E-02   -0.76498E-02  3214   0.190E+00    0.158E-01
DAV:   3    -0.433518425622E+02    0.21123E-03   -0.19234E-03  2484   0.847E-01    0.865E-02
DAV:   4    -0.433518100058E+02    0.32556E-04   -0.33849E-04  2924   0.417E-01    0.764E-02
DAV:   5    -0.433517877779E+02    0.22228E-04   -0.19121E-04  2628   0.549E-01    0.642E-02
DAV:   6    -0.433517175008E+02    0.70277E-04   -0.19774E-04  3616   0.493E-01    0.396E-02
DAV:   7    -0.433516969996E+02    0.20501E-04   -0.18085E-04  3570   0.258E-01    0.141E-02
DAV:   8    -0.433516978362E+02   -0.83659E-06   -0.39814E-05  2688   0.104E-01    0.833E-03
DAV:   9    -0.433516978716E+02   -0.35419E-07   -0.12913E-05  2047   0.481E-02    0.521E-03
DAV:  10    -0.433516978746E+02   -0.29977E-08   -0.33716E-06  1507   0.393E-02
  12 F= -.43351698E+02 E0= -.43322689E+02  d E =-.308080E-02
       N       E                     dE             d eps       ncg     rms          rms(c)
DAV:   1    -0.433424116177E+02    0.92863E-02   -0.50679E+00  2114   0.679E+00    0.139E-01
DAV:   2    -0.433531389228E+02   -0.10727E-01   -0.10975E-01  3205   0.233E+00    0.199E-01
DAV:   3    -0.433527934990E+02    0.34542E-03   -0.29743E-03  2499   0.112E+00    0.106E-01
DAV:   4    -0.433527499677E+02    0.43531E-04   -0.51556E-04  3003   0.557E-01    0.949E-02
DAV:   5    -0.433527009817E+02    0.48986E-04   -0.27443E-04  2613   0.642E-01    0.773E-02
DAV:   6    -0.433525985338E+02    0.10245E-03   -0.27572E-04  3483   0.509E-01    0.466E-02
DAV:   7    -0.433525754924E+02    0.23041E-04   -0.27027E-04  3485   0.277E-01    0.169E-02
DAV:   8    -0.433525764324E+02   -0.94005E-06   -0.56617E-05  2558   0.136E-01    0.945E-03
DAV:   9    -0.433525767171E+02   -0.28464E-06   -0.18073E-05  2208   0.586E-02    0.615E-03
DAV:  10    -0.433525765938E+02    0.12323E-06   -0.33415E-06  1619   0.458E-02
  13 F= -.43352577E+02 E0= -.43323667E+02  d E =-.395952E-02
       N       E                     dE             d eps       ncg     rms          rms(c)
DAV:   1    -0.433503663253E+02    0.22104E-02   -0.24532E+00  2173   0.498E+00    0.983E-02
DAV:   2    -0.433546422771E+02   -0.42760E-02   -0.44238E-02  3176   0.148E+00    0.145E-01
DAV:   3    -0.433544521731E+02    0.19010E-03   -0.13042E-03  2414   0.768E-01    0.824E-02
DAV:   4    -0.433544216189E+02    0.30554E-04   -0.22920E-04  3043   0.431E-01    0.746E-02
DAV:   5    -0.433543713728E+02    0.50246E-04   -0.13141E-04  3154   0.421E-01    0.546E-02
DAV:   6    -0.433543168037E+02    0.54569E-04   -0.19561E-04  3793   0.340E-01    0.304E-02
DAV:   7    -0.433543062471E+02    0.10557E-04   -0.10516E-04  3208   0.217E-01    0.996E-03
DAV:   8    -0.433543075262E+02   -0.12791E-05   -0.32756E-05  2344   0.877E-02    0.729E-03
DAV:   9    -0.433543073858E+02    0.14043E-06   -0.77406E-06  1952   0.401E-02
  14 F= -.43354307E+02 E0= -.43325431E+02  d E =-.173079E-02
       N       E                     dE             d eps       ncg     rms          rms(c)
DAV:   1    -0.433488593012E+02    0.54482E-02   -0.37617E+00  2164   0.617E+00    0.130E-01
DAV:   2    -0.433557291711E+02   -0.68699E-02   -0.71297E-02  3184   0.197E+00    0.199E-01
DAV:   3    -0.433553635819E+02    0.36559E-03   -0.24522E-03  2382   0.116E+00    0.108E-01
DAV:   4    -0.433553048060E+02    0.58776E-04   -0.42036E-04  2987   0.572E-01    0.966E-02
DAV:   5    -0.433552202004E+02    0.84606E-04   -0.23397E-04  3202   0.479E-01    0.689E-02
DAV:   6    -0.433551385503E+02    0.81650E-04   -0.27858E-04  3688   0.384E-01    0.400E-02
DAV:   7    -0.433551200468E+02    0.18504E-04   -0.16826E-04  3148   0.270E-01    0.133E-02
DAV:   8    -0.433551218376E+02   -0.17908E-05   -0.55278E-05  2407   0.125E-01    0.872E-03
DAV:   9    -0.433551221855E+02   -0.34788E-06   -0.14838E-05  2117   0.589E-02    0.778E-03
DAV:  10    -0.433551213578E+02    0.82768E-06   -0.38606E-06  1944   0.409E-02
  15 F= -.43355121E+02 E0= -.43326303E+02  d E =-.254476E-02
       N       E                     dE             d eps       ncg     rms          rms(c)
DAV:   1    -0.433550224874E+02    0.99698E-04   -0.70383E-01  2166   0.264E+00    0.534E-02
DAV:   2    -0.433561398707E+02   -0.11174E-02   -0.11678E-02  3157   0.817E-01    0.712E-02
DAV:   3    -0.433560989201E+02    0.40951E-04   -0.43307E-04  2448   0.425E-01    0.374E-02
DAV:   4    -0.433560930276E+02    0.58925E-05   -0.69535E-05  2956   0.192E-01    0.327E-02
DAV:   5    -0.433560920195E+02    0.10081E-05   -0.44068E-05  2624   0.266E-01    0.280E-02
DAV:   6    -0.433560770584E+02    0.14961E-04   -0.40983E-05  3471   0.229E-01    0.148E-02
DAV:   7    -0.433560753119E+02    0.17465E-05   -0.32626E-05  3467   0.111E-01    0.658E-03
DAV:   8    -0.433560751296E+02    0.18231E-06   -0.60177E-06  2000   0.479E-02
  16 F= -.43356075E+02 E0= -.43327271E+02  d E =-.953772E-03
       N       E                     dE             d eps       ncg     rms          rms(c)
DAV:   1    -0.433558511332E+02    0.22418E-03   -0.34147E-01  2159   0.184E+00    0.342E-02
DAV:   2    -0.433563684991E+02   -0.51737E-03   -0.53517E-03  3140   0.521E-01    0.402E-02
DAV:   3    -0.433563592342E+02    0.92649E-05   -0.16239E-04  2527   0.263E-01    0.242E-02
DAV:   4    -0.433563565505E+02    0.26837E-05   -0.25959E-05  2828   0.155E-01    0.211E-02
DAV:   5    -0.433563560691E+02    0.48144E-06   -0.18036E-05  2545   0.180E-01    0.181E-02
DAV:   6    -0.433563491445E+02    0.69246E-05   -0.23394E-05  3521   0.144E-01    0.791E-03
DAV:   7    -0.433563487022E+02    0.44220E-06   -0.90373E-06  2300   0.624E-02
  17 F= -.43356349E+02 E0= -.43327555E+02  d E =-.122734E-02
       N       E                     dE             d eps       ncg     rms          rms(c)
DAV:   1    -0.433563185423E+02    0.30602E-04   -0.33000E-02  2180   0.573E-01    0.109E-02
DAV:   2    -0.433563714451E+02   -0.52903E-04   -0.54188E-04  3160   0.169E-01    0.132E-02
DAV:   3    -0.433563704315E+02    0.10136E-05   -0.18839E-05  2309   0.994E-02    0.704E-03
DAV:   4    -0.433563702096E+02    0.22192E-06   -0.26205E-06  1253   0.482E-02
  18 F= -.43356370E+02 E0= -.43327582E+02  d E =-.124885E-02
       N       E                     dE             d eps       ncg     rms          rms(c)
DAV:   1    -0.433557935886E+02    0.57684E-03   -0.74681E-01  2182   0.268E+00    0.558E-02
DAV:   2    -0.433570662481E+02   -0.12727E-02   -0.13247E-02  3128   0.820E-01    0.731E-02
DAV:   3    -0.433570207986E+02    0.45450E-04   -0.41853E-04  2512   0.416E-01    0.392E-02
DAV:   4    -0.433570132246E+02    0.75741E-05   -0.65565E-05  3052   0.208E-01    0.363E-02
DAV:   5    -0.433570078168E+02    0.54078E-05   -0.41148E-05  2791   0.255E-01    0.281E-02
DAV:   6    -0.433569925402E+02    0.15277E-04   -0.54867E-05  3532   0.216E-01    0.153E-02
DAV:   7    -0.433569909464E+02    0.15938E-05   -0.33234E-05  3381   0.119E-01    0.597E-03
DAV:   8    -0.433569910701E+02   -0.12366E-06   -0.68357E-06  2040   0.420E-02
  19 F= -.43356991E+02 E0= -.43328206E+02  d E =-.620860E-03
       N       E                     dE             d eps       ncg     rms          rms(c)
DAV:   1    -0.433568407887E+02    0.15016E-03   -0.21505E-01  2185   0.144E+00    0.268E-02
DAV:   2    -0.433571889306E+02   -0.34814E-03   -0.35501E-03  3115   0.411E-01    0.309E-02
DAV:   3    -0.433571854397E+02    0.34909E-05   -0.10806E-04  2472   0.241E-01    0.202E-02
DAV:   4    -0.433571825103E+02    0.29294E-05   -0.17090E-05  2764   0.138E-01    0.169E-02
DAV:   5    -0.433571810665E+02    0.14438E-05   -0.97073E-06  2279   0.107E-01    0.132E-02
DAV:   6    -0.433571786263E+02    0.24401E-05   -0.20752E-05  3197   0.962E-02    0.661E-03
DAV:   7    -0.433571783048E+02    0.32157E-06   -0.48473E-06  1936   0.498E-02
  20 F= -.43357178E+02 E0= -.43328398E+02  d E =-.808095E-03
       N       E                     dE             d eps       ncg     rms          rms(c)
DAV:   1    -0.433559320652E+02    0.12466E-02   -0.86029E-01  2184   0.288E+00    0.553E-02
DAV:   2    -0.433573524896E+02   -0.14204E-02   -0.14589E-02  3130   0.831E-01    0.666E-02
DAV:   3    -0.433573224869E+02    0.30003E-04   -0.41038E-04  2504   0.403E-01    0.395E-02
DAV:   4    -0.433573154518E+02    0.70350E-05   -0.64489E-05  2886   0.236E-01    0.353E-02
DAV:   5    -0.433573096833E+02    0.57686E-05   -0.41058E-05  3176   0.250E-01    0.285E-02
DAV:   6    -0.433572951070E+02    0.14576E-04   -0.54382E-05  3710   0.213E-01    0.137E-02
DAV:   7    -0.433572935779E+02    0.15291E-05   -0.23548E-05  3306   0.109E-01    0.593E-03
DAV:   8    -0.433572936914E+02   -0.11348E-06   -0.70501E-06  2032   0.422E-02
  21 F= -.43357294E+02 E0= -.43328518E+02  d E =-.923482E-03
       N       E                     dE             d eps       ncg     rms          rms(c)
DAV:   1    -0.433562096950E+02    0.10839E-02   -0.10124E+00  2182   0.313E+00    0.572E-02
DAV:   2    -0.433579347823E+02   -0.17251E-02   -0.17566E-02  3147   0.921E-01    0.735E-02
DAV:   3    -0.433579033184E+02    0.31464E-04   -0.50626E-04  2461   0.504E-01    0.449E-02
DAV:   4    -0.433578909759E+02    0.12342E-04   -0.83205E-05  2857   0.283E-01    0.394E-02
DAV:   5    -0.433578783480E+02    0.12628E-04   -0.51527E-05  3485   0.226E-01    0.314E-02
DAV:   6    -0.433578586828E+02    0.19665E-04   -0.70647E-05  3718   0.196E-01    0.152E-02
DAV:   7    -0.433578569136E+02    0.17692E-05   -0.27374E-05  3213   0.111E-01    0.720E-03
DAV:   8    -0.433578569010E+02    0.12631E-07   -0.95854E-06  2024   0.566E-02
  22 F= -.43357857E+02 E0= -.43329107E+02  d E =-.563210E-03
       N       E                     dE             d eps       ncg     rms          rms(c)
DAV:   1    -0.433451646341E+02    0.12692E-01   -0.72863E+00  2174   0.844E+00    0.197E-01
DAV:   2    -0.433596485010E+02   -0.14484E-01   -0.14994E-01  3177   0.312E+00    0.288E-01
DAV:   3    -0.433588957834E+02    0.75272E-03   -0.59180E-03  2447   0.204E+00    0.144E-01
DAV:   4    -0.433587644350E+02    0.13135E-03   -0.11419E-03  2883   0.904E-01    0.127E-01
DAV:   5    -0.433586424070E+02    0.12203E-03   -0.58636E-04  2944   0.602E-01    0.972E-02
DAV:   6    -0.433585013030E+02    0.14110E-03   -0.41087E-04  3066   0.452E-01    0.605E-02
DAV:   7    -0.433584457870E+02    0.55516E-04   -0.37040E-04  3506   0.294E-01    0.227E-02
DAV:   8    -0.433584456676E+02    0.11938E-06   -0.10105E-04  2520   0.195E-01    0.115E-02
DAV:   9    -0.433584469141E+02   -0.12465E-05   -0.22456E-05  2312   0.842E-02    0.103E-02
DAV:  10    -0.433584459913E+02    0.92282E-06   -0.71180E-06  1952   0.509E-02
  23 F= -.43358446E+02 E0= -.43329772E+02  d E =-.115230E-02
       N       E                     dE             d eps       ncg     rms          rms(c)
DAV:   1    -0.433575606686E+02    0.88625E-03   -0.91073E-01  2177   0.298E+00    0.539E-02
DAV:   2    -0.433590407267E+02   -0.14801E-02   -0.15148E-02  3152   0.832E-01    0.711E-02
DAV:   3    -0.433590038696E+02    0.36857E-04   -0.40503E-04  2408   0.429E-01    0.437E-02
DAV:   4    -0.433589935183E+02    0.10351E-04   -0.66853E-05  2787   0.254E-01    0.391E-02
DAV:   5    -0.433589802991E+02    0.13219E-04   -0.44201E-05  3542   0.222E-01    0.301E-02
DAV:   6    -0.433589621316E+02    0.18167E-04   -0.63188E-05  3868   0.196E-01    0.148E-02
DAV:   7    -0.433589601586E+02    0.19730E-05   -0.28114E-05  3286   0.112E-01    0.649E-03
DAV:   8    -0.433589601771E+02   -0.18481E-07   -0.83828E-06  2048   0.508E-02
  24 F= -.43358960E+02 E0= -.43330319E+02  d E =-.514186E-03
       N       E                     dE             d eps       ncg     rms          rms(c)
DAV:   1    -0.433586248728E+02    0.33529E-03   -0.37072E-01  2174   0.190E+00    0.320E-02
DAV:   2    -0.433592074330E+02   -0.58256E-03   -0.59039E-03  3160   0.498E-01    0.373E-02
DAV:   3    -0.433592007875E+02    0.66455E-05   -0.13688E-04  2396   0.267E-01    0.267E-02
DAV:   4    -0.433591957150E+02    0.50725E-05   -0.23588E-05  2567   0.172E-01    0.227E-02
DAV:   5    -0.433591906841E+02    0.50309E-05   -0.17238E-05  2949   0.128E-01    0.167E-02
DAV:   6    -0.433591846446E+02    0.60395E-05   -0.31015E-05  3684   0.116E-01    0.757E-03
DAV:   7    -0.433591844660E+02    0.17858E-06   -0.66887E-06  2048   0.553E-02
  25 F= -.43359184E+02 E0= -.43330571E+02  d E =-.738475E-03
       N       E                     dE             d eps       ncg     rms          rms(c)
DAV:   1    -0.433571431527E+02    0.20415E-02   -0.14830E+00  2174   0.380E+00    0.698E-02
DAV:   2    -0.433595833022E+02   -0.24401E-02   -0.24956E-02  3166   0.107E+00    0.922E-02
DAV:   3    -0.433595205171E+02    0.62785E-04   -0.68636E-04  2396   0.573E-01    0.558E-02
DAV:   4    -0.433595038131E+02    0.16704E-04   -0.11839E-04  2773   0.333E-01    0.497E-02
DAV:   5    -0.433594819995E+02    0.21814E-04   -0.70281E-05  3435   0.277E-01    0.384E-02
DAV:   6    -0.433594525779E+02    0.29422E-04   -0.96198E-05  3828   0.239E-01    0.187E-02
DAV:   7    -0.433594493309E+02    0.32469E-05   -0.44661E-05  3252   0.133E-01    0.741E-03
DAV:   8    -0.433594494621E+02   -0.13117E-06   -0.11725E-05  2088   0.579E-02    0.457E-03
DAV:   9    -0.433594493809E+02    0.81229E-07   -0.26711E-06  1632   0.244E-02
  26 F= -.43359449E+02 E0= -.43330879E+02  d E =-.100339E-02
       N       E                     dE             d eps       ncg     rms          rms(c)
DAV:   1    -0.433490936373E+02    0.10356E-01   -0.59290E+00  2174   0.761E+00    0.172E-01
DAV:   2    -0.433602426616E+02   -0.11149E-01   -0.11548E-01  3167   0.268E+00    0.257E-01
DAV:   3    -0.433596505161E+02    0.59215E-03   -0.46601E-03  2388   0.181E+00    0.132E-01
DAV:   4    -0.433595334792E+02    0.11704E-03   -0.86446E-04  2871   0.797E-01    0.116E-01
DAV:   5    -0.433594220785E+02    0.11140E-03   -0.45733E-04  3036   0.505E-01    0.865E-02
DAV:   6    -0.433593012737E+02    0.12080E-03   -0.36020E-04  3182   0.416E-01    0.525E-02
DAV:   7    -0.433592621969E+02    0.39077E-04   -0.28273E-04  3412   0.288E-01    0.184E-02
DAV:   8    -0.433592627999E+02   -0.60294E-06   -0.75932E-05  2501   0.168E-01    0.103E-02
DAV:   9    -0.433592635124E+02   -0.71255E-06   -0.18726E-05  2200   0.727E-02    0.925E-03
DAV:  10    -0.433592626437E+02    0.86875E-06   -0.59529E-06  1976   0.439E-02
  27 F= -.43359263E+02 E0= -.43330799E+02  d E =-.816652E-03
       N       E                     dE             d eps       ncg     rms          rms(c)
DAV:   1    -0.433534803768E+02    0.57831E-02   -0.36438E+00  2173   0.596E+00    0.127E-01
DAV:   2    -0.433600626003E+02   -0.65822E-02   -0.68260E-02  3186   0.186E+00    0.185E-01
DAV:   3    -0.433597050112E+02    0.35759E-03   -0.21215E-03  2440   0.112E+00    0.956E-02
DAV:   4    -0.433596505428E+02    0.54468E-04   -0.37593E-04  3101   0.513E-01    0.873E-02
DAV:   5    -0.433595912874E+02    0.59255E-04   -0.18121E-04  3009   0.401E-01    0.660E-02
DAV:   6    -0.433595182466E+02    0.73041E-04   -0.22311E-04  3494   0.364E-01    0.438E-02
DAV:   7    -0.433594871646E+02    0.31082E-04   -0.17367E-04  3429   0.254E-01    0.130E-02
DAV:   8    -0.433594882344E+02   -0.10697E-05   -0.44840E-05  2542   0.107E-01    0.688E-03
DAV:   9    -0.433594886608E+02   -0.42649E-06   -0.98678E-06  1992   0.443E-02
  28 F= -.43359489E+02 E0= -.43330937E+02  d E =-.104267E-02
       N       E                     dE             d eps       ncg     rms          rms(c)
DAV:   1    -0.433585960345E+02    0.89220E-03   -0.82062E-01  2148   0.285E+00    0.539E-02
DAV:   2    -0.433600621371E+02   -0.14661E-02   -0.15036E-02  3134   0.871E-01    0.690E-02
DAV:   3    -0.433600272374E+02    0.34900E-04   -0.43831E-04  2493   0.436E-01    0.401E-02
DAV:   4    -0.433600185819E+02    0.86555E-05   -0.72944E-05  2784   0.229E-01    0.358E-02
DAV:   5    -0.433600113506E+02    0.72313E-05   -0.38758E-05  2828   0.231E-01    0.291E-02
DAV:   6    -0.433599942311E+02    0.17119E-04   -0.55641E-05  3744   0.196E-01    0.138E-02
DAV:   7    -0.433599925234E+02    0.17077E-05   -0.28064E-05  3367   0.988E-02    0.516E-03
DAV:   8    -0.433599927148E+02   -0.19144E-06   -0.61753E-06  2024   0.372E-02
  29 F= -.43359993E+02 E0= -.43331496E+02  d E =-.504054E-03
       N       E                     dE             d eps       ncg     rms          rms(c)
DAV:   1    -0.433595143862E+02    0.47814E-03   -0.37792E-01  2156   0.194E+00    0.340E-02
DAV:   2    -0.433601747912E+02   -0.66041E-03   -0.67164E-03  3118   0.540E-01    0.370E-02
DAV:   3    -0.433601673303E+02    0.74609E-05   -0.13849E-04  2516   0.238E-01    0.259E-02
DAV:   4    -0.433601632690E+02    0.40613E-05   -0.25101E-05  2482   0.167E-01    0.225E-02
DAV:   5    -0.433601606167E+02    0.26523E-05   -0.17312E-05  2846   0.164E-01    0.180E-02
DAV:   6    -0.433601534628E+02    0.71538E-05   -0.30605E-05  3816   0.138E-01    0.732E-03
DAV:   7    -0.433601531674E+02    0.29543E-06   -0.70513E-06  2224   0.557E-02
  30 F= -.43360153E+02 E0= -.43331698E+02  d E =-.664507E-03
       N       E                     dE             d eps       ncg     rms          rms(c)
DAV:   1    -0.433574066174E+02    0.27468E-02   -0.15117E+00  2156   0.388E+00    0.741E-02
DAV:   2    -0.433601531348E+02   -0.27465E-02   -0.28097E-02  3152   0.117E+00    0.921E-02
DAV:   3    -0.433600874416E+02    0.65693E-04   -0.75536E-04  2560   0.584E-01    0.536E-02
DAV:   4    -0.433600731082E+02    0.14333E-04   -0.13533E-04  2861   0.338E-01    0.481E-02
DAV:   5    -0.433600566123E+02    0.16496E-04   -0.72191E-05  3262   0.304E-01    0.376E-02
DAV:   6    -0.433600291367E+02    0.27476E-04   -0.95714E-05  3813   0.242E-01    0.183E-02
DAV:   7    -0.433600260448E+02    0.30919E-05   -0.43884E-05  3248   0.120E-01    0.610E-03
DAV:   8    -0.433600264358E+02   -0.39101E-06   -0.10484E-05  2080   0.439E-02    0.451E-03
DAV:   9    -0.433600262798E+02    0.15603E-06   -0.19561E-06  1320   0.247E-02
  31 F= -.43360026E+02 E0= -.43331646E+02  d E =-.537619E-03
       N       E                     dE             d eps       ncg     rms          rms(c)
DAV:   1    -0.433586773134E+02    0.13491E-02   -0.88131E-01  2156   0.296E+00    0.537E-02
DAV:   2    -0.433602530468E+02   -0.15757E-02   -0.16100E-02  3177   0.856E-01    0.669E-02
DAV:   3    -0.433602193393E+02    0.33708E-04   -0.36443E-04  2476   0.398E-01    0.410E-02
DAV:   4    -0.433602109322E+02    0.84071E-05   -0.66474E-05  2977   0.260E-01    0.373E-02
DAV:   5    -0.433601996257E+02    0.11307E-04   -0.40283E-05  3588   0.240E-01    0.280E-02
DAV:   6    -0.433601838522E+02    0.15773E-04   -0.60959E-05  3893   0.198E-01    0.154E-02
DAV:   7    -0.433601814028E+02    0.24494E-05   -0.26023E-05  3056   0.115E-01    0.587E-03
DAV:   8    -0.433601815194E+02   -0.11662E-06   -0.75373E-06  2007   0.417E-02
  32 F= -.43360182E+02 E0= -.43331741E+02  d E =-.692859E-03
       N       E                     dE             d eps       ncg     rms          rms(c)
DAV:   1    -0.433595109645E+02    0.67044E-03   -0.53042E-01  2131   0.226E+00    0.408E-02
DAV:   2    -0.433605139974E+02   -0.10030E-02   -0.10223E-02  3142   0.664E-01    0.461E-02
DAV:   3    -0.433605011701E+02    0.12827E-04   -0.21209E-04  2518   0.298E-01    0.305E-02
DAV:   4    -0.433604951890E+02    0.59811E-05   -0.38326E-05  2711   0.195E-01    0.270E-02
DAV:   5    -0.433604911508E+02    0.40382E-05   -0.25861E-05  3290   0.207E-01    0.218E-02
DAV:   6    -0.433604785707E+02    0.12580E-04   -0.40436E-05  3891   0.165E-01    0.876E-03
DAV:   7    -0.433604780457E+02    0.52503E-06   -0.10683E-05  2768   0.632E-02    0.415E-03
DAV:   8    -0.433604780362E+02    0.95461E-08   -0.26146E-06  1439   0.250E-02
  33 F= -.43360478E+02 E0= -.43332062E+02  d E =-.296517E-03
