 vasp.6.5.1 10Mar25 (build Mar 14 2026 15:48:08) complex                         
 executed on              LinuxNV date 2026.03.23  15:57:07
 running    1 mpi-ranks, with    1 threads/rank, on    1 nodes
 distrk:  each k-point on    1 cores,    1 groups
 distr:  one band on NCORE=   1 cores,    1 groups
 Offloading initialized ...    1 GPUs detected


--------------------------------------------------------------------------------------------------------


 INCAR:
   SYSTEM = Cu-Ag alloy CO adsorption (RPBE, matches CatHub)
   ENCUT = 450
   EDIFF = 1E-6
   ISMEAR = 0
   SIGMA = 0.1
   ALGO = Normal
   NELM = 200
   PREC = Normal
   GGA = RP
   IBRION = 2
   NSW = 200
   ISIF = 2
   EDIFFG = -0.03
   ISPIN = 1
   LREAL = Auto
   NPAR = 4
   LORBIT = 11
   LWAVE = .FALSE.
   LCHARG = .FALSE.

 POTCAR:    PAW_PBE Cu 22Jun2005                  
 POTCAR:    PAW_PBE Ag 02Apr2005                  
 POTCAR:    PAW_PBE Cu 22Jun2005                  
 POTCAR:    PAW_PBE Ag 02Apr2005                  
 POTCAR:    PAW_PBE Cu 22Jun2005                  
 POTCAR:    PAW_PBE Ag 02Apr2005                  
 POTCAR:    PAW_PBE Cu 22Jun2005                  
 POTCAR:    PAW_PBE Ag 02Apr2005                  
 POTCAR:    PAW_PBE Cu 22Jun2005                  
   SHA256 =  0e71e558f37a4e8407882b4609ceaae59938afaad9ced71dfe8490308a0ab630 Cu/POTCAR             
   COPYR  = (c) Copyright 22Jun2005 Georg Kresse                                                    
   COPYR  = This file is part of the software VASP. Any use, copying, and all other rights are regul
   COPYR  = If you do not have a valid VASP license, you may not use, copy or distribute this file. 
   VRHFIN =Cu: d10 p1                                                                               
   LEXCH  = PE                                                                                      
   EATOM  =  1390.9808 eV,  102.2342 Ry                                                             
                                                                                                    
   TITEL  = PAW_PBE Cu 22Jun2005                                                                    
   LULTRA =        F    use ultrasoft PP ?                                                          
   IUNSCR =        1    unscreen: 0-lin 1-nonlin 2-no                                               
   RPACOR =    2.000    partial core radius                                                         
   POMASS =   63.546; ZVAL   =   11.000    mass and valenz                                          
   RCORE  =    2.300    outmost cutoff radius                                                       
   RWIGS  =    2.200; RWIGS  =    1.164    wigner-seitz radius (au A)                               
   ENMAX  =  295.446; ENMIN  =  221.585 eV                                                          
   ICORE  =        3    local potential                                                             
   LCOR   =        T    correct aug charges                                                         
   LPAW   =        T    paw PP                                                                      
   EAUG   =  586.980                                                                                
   DEXC   =    0.000                                                                                
   RMAX   =    2.344    core radius for proj-oper                                                   
   RAUG   =    1.300    factor for augmentation sphere                                              
   RDEP   =    2.302    radius for radial grids                                                     
   RDEPT  =    1.771    core radius for aug-charge                                                  
                                                                                                    
   Atomic configuration                                                                             
    9 entries                                                                                       
     n  l   j            E        occ.                                                              
     1  0  0.50     -8850.2468   2.0000                                                             
     2  0  0.50     -1062.3498   2.0000                                                             
     2  1  1.50      -916.8226   6.0000                                                             
     3  0  0.50      -114.6929   2.0000                                                             
     3  1  1.50       -72.1325   6.0000                                                             
     3  2  2.50        -5.0394  10.0000                                                             
     4  0  0.50        -4.6097   1.0000                                                             
     4  1  0.50        -4.0817   0.0000                                                             
     4  3  2.50        -1.3606   0.0000                                                             
   Description                                                                                      
     l       E           TYP  RCUT    TYP  RCUT                                                     
     2     -5.0393973     23  2.200                                                                 
     2     10.8846608     23  2.200                                                                 
     0     -4.6097109     23  2.200                                                                 
     0      8.2520465     23  2.200                                                                 
     1     -2.7211652     23  2.200                                                                 
     1     21.7055443     23  2.200                                                                 
     3      2.7211652     23  2.300                                                                 
  local pseudopotential read in
  partial core-charges read in
  partial kinetic energy density read in
  atomic valenz-charges read in
  non local Contribution for L=            2  read in
    real space projection operators read in
  non local Contribution for L=            2  read in
    real space projection operators read in
  non local Contribution for L=            0  read in
    real space projection operators read in
  non local Contribution for L=            0  read in
    real space projection operators read in
  non local Contribution for L=            1  read in
    real space projection operators read in
  non local Contribution for L=            1  read in
    real space projection operators read in
    PAW grid and wavefunctions read in
 
   number of l-projection  operators is LMAX  =            6
   number of lm-projection operators is LMMAX =           18
 
 POTCAR:    PAW_PBE Ag 02Apr2005                  
   SHA256 =  6550cfa3543261e132c169e1b98a529204624d72be14e2da2e0242bcb74a174d Ag/POTCAR             
   COPYR  = (c) Copyright 02Apr2005 Georg Kresse                                                    
   COPYR  = This file is part of the software VASP. Any use, copying, and all other rights are regul
   COPYR  = If you do not have a valid VASP license, you may not use, copy or distribute this file. 
   VRHFIN =Ag : s1 d10                                                                              
   LEXCH  = PE                                                                                      
   EATOM  =  1037.2675 eV,   76.2370 Ry                                                             
                                                                                                    
   TITEL  = PAW_PBE Ag 02Apr2005                                                                    
   LULTRA =        F    use ultrasoft PP ?                                                          
   IUNSCR =        1    unscreen: 0-lin 1-nonlin 2-no                                               
   RPACOR =    2.000    partial core radius                                                         
   POMASS =  107.868; ZVAL   =   11.000    mass and valenz                                          
   RCORE  =    2.500    outmost cutoff radius                                                       
   RWIGS  =    2.840; RWIGS  =    1.503    wigner-seitz radius (au A)                               
   ENMAX  =  249.844; ENMIN  =  187.383 eV                                                          
   ICORE  =        3    local potential                                                             
   LCOR   =        T    correct aug charges                                                         
   LPAW   =        T    paw PP                                                                      
   EAUG   =  412.496                                                                                
   DEXC   =    0.000                                                                                
   RMAX   =    2.560    core radius for proj-oper                                                   
   RAUG   =    1.300    factor for augmentation sphere                                              
   RDEP   =    2.576    radius for radial grids                                                     
   RDEPT  =    2.072    core radius for aug-charge                                                  
                                                                                                    
   Atomic configuration                                                                             
   12 entries                                                                                       
     n  l   j            E        occ.                                                              
     1  0  0.50    -25324.9161   2.0000                                                             
     2  0  0.50     -3728.5341   2.0000                                                             
     2  1  1.50     -3344.0404   6.0000                                                             
     3  0  0.50      -683.5581   2.0000                                                             
     3  1  1.50      -557.3225   6.0000                                                             
     3  2  2.50      -358.3853  10.0000                                                             
     4  0  0.50       -95.0341   2.0000                                                             
     4  1  1.50       -58.5511   6.0000                                                             
     4  2  2.50        -7.4440  10.0000                                                             
     5  0  0.50        -4.4045   1.0000                                                             
     5  1  0.50        -1.3606   0.0000                                                             
     4  3  2.50        -1.3606   0.0000                                                             
   Description                                                                                      
     l       E           TYP  RCUT    TYP  RCUT                                                     
     2     -7.4439781     23  2.400                                                                 
     2     -8.8045607     23  2.400                                                                 
     0     -4.4044681     23  2.400                                                                 
     0      1.9520038     23  2.400                                                                 
     1     -1.3605826     23  2.500                                                                 
     1     27.2116520     23  2.500                                                                 
     3     -4.0817478     23  2.400                                                                 
  local pseudopotential read in
  partial core-charges read in
  partial kinetic energy density read in
  atomic valenz-charges read in
  non local Contribution for L=            2  read in
    real space projection operators read in
  non local Contribution for L=            2  read in
    real space projection operators read in
  non local Contribution for L=            0  read in
    real space projection operators read in
  non local Contribution for L=            0  read in
    real space projection operators read in
  non local Contribution for L=            1  read in
    real space projection operators read in
  non local Contribution for L=            1  read in
    real space projection operators read in
    PAW grid and wavefunctions read in
 
   number of l-projection  operators is LMAX  =            6
   number of lm-projection operators is LMMAX =           18
 
 POTCAR:    PAW_PBE Cu 22Jun2005                  
   SHA256 =  0e71e558f37a4e8407882b4609ceaae59938afaad9ced71dfe8490308a0ab630 Cu/POTCAR             
   COPYR  = (c) Copyright 22Jun2005 Georg Kresse                                                    
   COPYR  = This file is part of the software VASP. Any use, copying, and all other rights are regul
   COPYR  = If you do not have a valid VASP license, you may not use, copy or distribute this file. 
   VRHFIN =Cu: d10 p1                                                                               
   LEXCH  = PE                                                                                      
   EATOM  =  1390.9808 eV,  102.2342 Ry                                                             
                                                                                                    
   TITEL  = PAW_PBE Cu 22Jun2005                                                                    
   LULTRA =        F    use ultrasoft PP ?                                                          
   IUNSCR =        1    unscreen: 0-lin 1-nonlin 2-no                                               
   RPACOR =    2.000    partial core radius                                                         
   POMASS =   63.546; ZVAL   =   11.000    mass and valenz                                          
   RCORE  =    2.300    outmost cutoff radius                                                       
   RWIGS  =    2.200; RWIGS  =    1.164    wigner-seitz radius (au A)                               
   ENMAX  =  295.446; ENMIN  =  221.585 eV                                                          
   ICORE  =        3    local potential                                                             
   LCOR   =        T    correct aug charges                                                         
   LPAW   =        T    paw PP                                                                      
   EAUG   =  586.980                                                                                
   DEXC   =    0.000                                                                                
   RMAX   =    2.344    core radius for proj-oper                                                   
   RAUG   =    1.300    factor for augmentation sphere                                              
   RDEP   =    2.302    radius for radial grids                                                     
   RDEPT  =    1.771    core radius for aug-charge                                                  
                                                                                                    
   Atomic configuration                                                                             
    9 entries                                                                                       
     n  l   j            E        occ.                                                              
     1  0  0.50     -8850.2468   2.0000                                                             
     2  0  0.50     -1062.3498   2.0000                                                             
     2  1  1.50      -916.8226   6.0000                                                             
     3  0  0.50      -114.6929   2.0000                                                             
     3  1  1.50       -72.1325   6.0000                                                             
     3  2  2.50        -5.0394  10.0000                                                             
     4  0  0.50        -4.6097   1.0000                                                             
     4  1  0.50        -4.0817   0.0000                                                             
     4  3  2.50        -1.3606   0.0000                                                             
   Description                                                                                      
     l       E           TYP  RCUT    TYP  RCUT                                                     
     2     -5.0393973     23  2.200                                                                 
     2     10.8846608     23  2.200                                                                 
     0     -4.6097109     23  2.200                                                                 
     0      8.2520465     23  2.200                                                                 
     1     -2.7211652     23  2.200                                                                 
     1     21.7055443     23  2.200                                                                 
     3      2.7211652     23  2.300                                                                 
  local pseudopotential read in
  partial core-charges read in
  partial kinetic energy density read in
  atomic valenz-charges read in
  non local Contribution for L=            2  read in
    real space projection operators read in
  non local Contribution for L=            2  read in
    real space projection operators read in
  non local Contribution for L=            0  read in
    real space projection operators read in
  non local Contribution for L=            0  read in
    real space projection operators read in
  non local Contribution for L=            1  read in
    real space projection operators read in
  non local Contribution for L=            1  read in
    real space projection operators read in
    PAW grid and wavefunctions read in
 
   number of l-projection  operators is LMAX  =            6
   number of lm-projection operators is LMMAX =           18
 
 POTCAR:    PAW_PBE Ag 02Apr2005                  
   SHA256 =  6550cfa3543261e132c169e1b98a529204624d72be14e2da2e0242bcb74a174d Ag/POTCAR             
   COPYR  = (c) Copyright 02Apr2005 Georg Kresse                                                    
   COPYR  = This file is part of the software VASP. Any use, copying, and all other rights are regul
   COPYR  = If you do not have a valid VASP license, you may not use, copy or distribute this file. 
   VRHFIN =Ag : s1 d10                                                                              
   LEXCH  = PE                                                                                      
   EATOM  =  1037.2675 eV,   76.2370 Ry                                                             
                                                                                                    
   TITEL  = PAW_PBE Ag 02Apr2005                                                                    
   LULTRA =        F    use ultrasoft PP ?                                                          
   IUNSCR =        1    unscreen: 0-lin 1-nonlin 2-no                                               
   RPACOR =    2.000    partial core radius                                                         
   POMASS =  107.868; ZVAL   =   11.000    mass and valenz                                          
   RCORE  =    2.500    outmost cutoff radius                                                       
   RWIGS  =    2.840; RWIGS  =    1.503    wigner-seitz radius (au A)                               
   ENMAX  =  249.844; ENMIN  =  187.383 eV                                                          
   ICORE  =        3    local potential                                                             
   LCOR   =        T    correct aug charges                                                         
   LPAW   =        T    paw PP                                                                      
   EAUG   =  412.496                                                                                
   DEXC   =    0.000                                                                                
   RMAX   =    2.560    core radius for proj-oper                                                   
   RAUG   =    1.300    factor for augmentation sphere                                              
   RDEP   =    2.576    radius for radial grids                                                     
   RDEPT  =    2.072    core radius for aug-charge                                                  
                                                                                                    
   Atomic configuration                                                                             
   12 entries                                                                                       
     n  l   j            E        occ.                                                              
     1  0  0.50    -25324.9161   2.0000                                                             
     2  0  0.50     -3728.5341   2.0000                                                             
     2  1  1.50     -3344.0404   6.0000                                                             
     3  0  0.50      -683.5581   2.0000                                                             
     3  1  1.50      -557.3225   6.0000                                                             
     3  2  2.50      -358.3853  10.0000                                                             
     4  0  0.50       -95.0341   2.0000                                                             
     4  1  1.50       -58.5511   6.0000                                                             
     4  2  2.50        -7.4440  10.0000                                                             
     5  0  0.50        -4.4045   1.0000                                                             
     5  1  0.50        -1.3606   0.0000                                                             
     4  3  2.50        -1.3606   0.0000                                                             
   Description                                                                                      
     l       E           TYP  RCUT    TYP  RCUT                                                     
     2     -7.4439781     23  2.400                                                                 
     2     -8.8045607     23  2.400                                                                 
     0     -4.4044681     23  2.400                                                                 
     0      1.9520038     23  2.400                                                                 
     1     -1.3605826     23  2.500                                                                 
     1     27.2116520     23  2.500                                                                 
     3     -4.0817478     23  2.400                                                                 
  local pseudopotential read in
  partial core-charges read in
  partial kinetic energy density read in
  atomic valenz-charges read in
  non local Contribution for L=            2  read in
    real space projection operators read in
  non local Contribution for L=            2  read in
    real space projection operators read in
  non local Contribution for L=            0  read in
    real space projection operators read in
  non local Contribution for L=            0  read in
    real space projection operators read in
  non local Contribution for L=            1  read in
    real space projection operators read in
  non local Contribution for L=            1  read in
    real space projection operators read in
    PAW grid and wavefunctions read in
 
   number of l-projection  operators is LMAX  =            6
   number of lm-projection operators is LMMAX =           18
 
 POTCAR:    PAW_PBE Cu 22Jun2005                  
   SHA256 =  0e71e558f37a4e8407882b4609ceaae59938afaad9ced71dfe8490308a0ab630 Cu/POTCAR             
   COPYR  = (c) Copyright 22Jun2005 Georg Kresse                                                    
   COPYR  = This file is part of the software VASP. Any use, copying, and all other rights are regul
   COPYR  = If you do not have a valid VASP license, you may not use, copy or distribute this file. 
   VRHFIN =Cu: d10 p1                                                                               
   LEXCH  = PE                                                                                      
   EATOM  =  1390.9808 eV,  102.2342 Ry                                                             
                                                                                                    
   TITEL  = PAW_PBE Cu 22Jun2005                                                                    
   LULTRA =        F    use ultrasoft PP ?                                                          
   IUNSCR =        1    unscreen: 0-lin 1-nonlin 2-no                                               
   RPACOR =    2.000    partial core radius                                                         
   POMASS =   63.546; ZVAL   =   11.000    mass and valenz                                          
   RCORE  =    2.300    outmost cutoff radius                                                       
   RWIGS  =    2.200; RWIGS  =    1.164    wigner-seitz radius (au A)                               
   ENMAX  =  295.446; ENMIN  =  221.585 eV                                                          
   ICORE  =        3    local potential                                                             
   LCOR   =        T    correct aug charges                                                         
   LPAW   =        T    paw PP                                                                      
   EAUG   =  586.980                                                                                
   DEXC   =    0.000                                                                                
   RMAX   =    2.344    core radius for proj-oper                                                   
   RAUG   =    1.300    factor for augmentation sphere                                              
   RDEP   =    2.302    radius for radial grids                                                     
   RDEPT  =    1.771    core radius for aug-charge                                                  
                                                                                                    
   Atomic configuration                                                                             
    9 entries                                                                                       
     n  l   j            E        occ.                                                              
     1  0  0.50     -8850.2468   2.0000                                                             
     2  0  0.50     -1062.3498   2.0000                                                             
     2  1  1.50      -916.8226   6.0000                                                             
     3  0  0.50      -114.6929   2.0000                                                             
     3  1  1.50       -72.1325   6.0000                                                             
     3  2  2.50        -5.0394  10.0000                                                             
     4  0  0.50        -4.6097   1.0000                                                             
     4  1  0.50        -4.0817   0.0000                                                             
     4  3  2.50        -1.3606   0.0000                                                             
   Description                                                                                      
     l       E           TYP  RCUT    TYP  RCUT                                                     
     2     -5.0393973     23  2.200                                                                 
     2     10.8846608     23  2.200                                                                 
     0     -4.6097109     23  2.200                                                                 
     0      8.2520465     23  2.200                                                                 
     1     -2.7211652     23  2.200                                                                 
     1     21.7055443     23  2.200                                                                 
     3      2.7211652     23  2.300                                                                 
  local pseudopotential read in
  partial core-charges read in
  partial kinetic energy density read in
  atomic valenz-charges read in
  non local Contribution for L=            2  read in
    real space projection operators read in
  non local Contribution for L=            2  read in
    real space projection operators read in
  non local Contribution for L=            0  read in
    real space projection operators read in
  non local Contribution for L=            0  read in
    real space projection operators read in
  non local Contribution for L=            1  read in
    real space projection operators read in
  non local Contribution for L=            1  read in
    real space projection operators read in
    PAW grid and wavefunctions read in
 
   number of l-projection  operators is LMAX  =            6
   number of lm-projection operators is LMMAX =           18
 
 POTCAR:    PAW_PBE Ag 02Apr2005                  
   SHA256 =  6550cfa3543261e132c169e1b98a529204624d72be14e2da2e0242bcb74a174d Ag/POTCAR             
   COPYR  = (c) Copyright 02Apr2005 Georg Kresse                                                    
   COPYR  = This file is part of the software VASP. Any use, copying, and all other rights are regul
   COPYR  = If you do not have a valid VASP license, you may not use, copy or distribute this file. 
   VRHFIN =Ag : s1 d10                                                                              
   LEXCH  = PE                                                                                      
   EATOM  =  1037.2675 eV,   76.2370 Ry                                                             
                                                                                                    
   TITEL  = PAW_PBE Ag 02Apr2005                                                                    
   LULTRA =        F    use ultrasoft PP ?                                                          
   IUNSCR =        1    unscreen: 0-lin 1-nonlin 2-no                                               
   RPACOR =    2.000    partial core radius                                                         
   POMASS =  107.868; ZVAL   =   11.000    mass and valenz                                          
   RCORE  =    2.500    outmost cutoff radius                                                       
   RWIGS  =    2.840; RWIGS  =    1.503    wigner-seitz radius (au A)                               
   ENMAX  =  249.844; ENMIN  =  187.383 eV                                                          
   ICORE  =        3    local potential                                                             
   LCOR   =        T    correct aug charges                                                         
   LPAW   =        T    paw PP                                                                      
   EAUG   =  412.496                                                                                
   DEXC   =    0.000                                                                                
   RMAX   =    2.560    core radius for proj-oper                                                   
   RAUG   =    1.300    factor for augmentation sphere                                              
   RDEP   =    2.576    radius for radial grids                                                     
   RDEPT  =    2.072    core radius for aug-charge                                                  
                                                                                                    
   Atomic configuration                                                                             
   12 entries                                                                                       
     n  l   j            E        occ.                                                              
     1  0  0.50    -25324.9161   2.0000                                                             
     2  0  0.50     -3728.5341   2.0000                                                             
     2  1  1.50     -3344.0404   6.0000                                                             
     3  0  0.50      -683.5581   2.0000                                                             
     3  1  1.50      -557.3225   6.0000                                                             
     3  2  2.50      -358.3853  10.0000                                                             
     4  0  0.50       -95.0341   2.0000                                                             
     4  1  1.50       -58.5511   6.0000                                                             
     4  2  2.50        -7.4440  10.0000                                                             
     5  0  0.50        -4.4045   1.0000                                                             
     5  1  0.50        -1.3606   0.0000                                                             
     4  3  2.50        -1.3606   0.0000                                                             
   Description                                                                                      
     l       E           TYP  RCUT    TYP  RCUT                                                     
     2     -7.4439781     23  2.400                                                                 
     2     -8.8045607     23  2.400                                                                 
     0     -4.4044681     23  2.400                                                                 
     0      1.9520038     23  2.400                                                                 
     1     -1.3605826     23  2.500                                                                 
     1     27.2116520     23  2.500                                                                 
     3     -4.0817478     23  2.400                                                                 
  local pseudopotential read in
  partial core-charges read in
  partial kinetic energy density read in
  atomic valenz-charges read in
  non local Contribution for L=            2  read in
    real space projection operators read in
  non local Contribution for L=            2  read in
    real space projection operators read in
  non local Contribution for L=            0  read in
    real space projection operators read in
  non local Contribution for L=            0  read in
    real space projection operators read in
  non local Contribution for L=            1  read in
    real space projection operators read in
  non local Contribution for L=            1  read in
    real space projection operators read in
    PAW grid and wavefunctions read in
 
   number of l-projection  operators is LMAX  =            6
   number of lm-projection operators is LMMAX =           18
 
 POTCAR:    PAW_PBE Cu 22Jun2005                  
   SHA256 =  0e71e558f37a4e8407882b4609ceaae59938afaad9ced71dfe8490308a0ab630 Cu/POTCAR             
   COPYR  = (c) Copyright 22Jun2005 Georg Kresse                                                    
   COPYR  = This file is part of the software VASP. Any use, copying, and all other rights are regul
   COPYR  = If you do not have a valid VASP license, you may not use, copy or distribute this file. 
   VRHFIN =Cu: d10 p1                                                                               
   LEXCH  = PE                                                                                      
   EATOM  =  1390.9808 eV,  102.2342 Ry                                                             
                                                                                                    
   TITEL  = PAW_PBE Cu 22Jun2005                                                                    
   LULTRA =        F    use ultrasoft PP ?                                                          
   IUNSCR =        1    unscreen: 0-lin 1-nonlin 2-no                                               
   RPACOR =    2.000    partial core radius                                                         
   POMASS =   63.546; ZVAL   =   11.000    mass and valenz                                          
   RCORE  =    2.300    outmost cutoff radius                                                       
   RWIGS  =    2.200; RWIGS  =    1.164    wigner-seitz radius (au A)                               
   ENMAX  =  295.446; ENMIN  =  221.585 eV                                                          
   ICORE  =        3    local potential                                                             
   LCOR   =        T    correct aug charges                                                         
   LPAW   =        T    paw PP                                                                      
   EAUG   =  586.980                                                                                
   DEXC   =    0.000                                                                                
   RMAX   =    2.344    core radius for proj-oper                                                   
   RAUG   =    1.300    factor for augmentation sphere                                              
   RDEP   =    2.302    radius for radial grids                                                     
   RDEPT  =    1.771    core radius for aug-charge                                                  
                                                                                                    
   Atomic configuration                                                                             
    9 entries                                                                                       
     n  l   j            E        occ.                                                              
     1  0  0.50     -8850.2468   2.0000                                                             
     2  0  0.50     -1062.3498   2.0000                                                             
     2  1  1.50      -916.8226   6.0000                                                             
     3  0  0.50      -114.6929   2.0000                                                             
     3  1  1.50       -72.1325   6.0000                                                             
     3  2  2.50        -5.0394  10.0000                                                             
     4  0  0.50        -4.6097   1.0000                                                             
     4  1  0.50        -4.0817   0.0000                                                             
     4  3  2.50        -1.3606   0.0000                                                             
   Description                                                                                      
     l       E           TYP  RCUT    TYP  RCUT                                                     
     2     -5.0393973     23  2.200                                                                 
     2     10.8846608     23  2.200                                                                 
     0     -4.6097109     23  2.200                                                                 
     0      8.2520465     23  2.200                                                                 
     1     -2.7211652     23  2.200                                                                 
     1     21.7055443     23  2.200                                                                 
     3      2.7211652     23  2.300                                                                 
  local pseudopotential read in
  partial core-charges read in
  partial kinetic energy density read in
  atomic valenz-charges read in
  non local Contribution for L=            2  read in
    real space projection operators read in
  non local Contribution for L=            2  read in
    real space projection operators read in
  non local Contribution for L=            0  read in
    real space projection operators read in
  non local Contribution for L=            0  read in
    real space projection operators read in
  non local Contribution for L=            1  read in
    real space projection operators read in
  non local Contribution for L=            1  read in
    real space projection operators read in
    PAW grid and wavefunctions read in
 
   number of l-projection  operators is LMAX  =            6
   number of lm-projection operators is LMMAX =           18
 
 POTCAR:    PAW_PBE Ag 02Apr2005                  
   SHA256 =  6550cfa3543261e132c169e1b98a529204624d72be14e2da2e0242bcb74a174d Ag/POTCAR             
   COPYR  = (c) Copyright 02Apr2005 Georg Kresse                                                    
   COPYR  = This file is part of the software VASP. Any use, copying, and all other rights are regul
   COPYR  = If you do not have a valid VASP license, you may not use, copy or distribute this file. 
   VRHFIN =Ag : s1 d10                                                                              
   LEXCH  = PE                                                                                      
   EATOM  =  1037.2675 eV,   76.2370 Ry                                                             
                                                                                                    
   TITEL  = PAW_PBE Ag 02Apr2005                                                                    
   LULTRA =        F    use ultrasoft PP ?                                                          
   IUNSCR =        1    unscreen: 0-lin 1-nonlin 2-no                                               
   RPACOR =    2.000    partial core radius                                                         
   POMASS =  107.868; ZVAL   =   11.000    mass and valenz                                          
   RCORE  =    2.500    outmost cutoff radius                                                       
   RWIGS  =    2.840; RWIGS  =    1.503    wigner-seitz radius (au A)                               
   ENMAX  =  249.844; ENMIN  =  187.383 eV                                                          
   ICORE  =        3    local potential                                                             
   LCOR   =        T    correct aug charges                                                         
   LPAW   =        T    paw PP                                                                      
   EAUG   =  412.496                                                                                
   DEXC   =    0.000                                                                                
   RMAX   =    2.560    core radius for proj-oper                                                   
   RAUG   =    1.300    factor for augmentation sphere                                              
   RDEP   =    2.576    radius for radial grids                                                     
   RDEPT  =    2.072    core radius for aug-charge                                                  
                                                                                                    
   Atomic configuration                                                                             
   12 entries                                                                                       
     n  l   j            E        occ.                                                              
     1  0  0.50    -25324.9161   2.0000                                                             
     2  0  0.50     -3728.5341   2.0000                                                             
     2  1  1.50     -3344.0404   6.0000                                                             
     3  0  0.50      -683.5581   2.0000                                                             
     3  1  1.50      -557.3225   6.0000                                                             
     3  2  2.50      -358.3853  10.0000                                                             
     4  0  0.50       -95.0341   2.0000                                                             
     4  1  1.50       -58.5511   6.0000                                                             
     4  2  2.50        -7.4440  10.0000                                                             
     5  0  0.50        -4.4045   1.0000                                                             
     5  1  0.50        -1.3606   0.0000                                                             
     4  3  2.50        -1.3606   0.0000                                                             
   Description                                                                                      
     l       E           TYP  RCUT    TYP  RCUT                                                     
     2     -7.4439781     23  2.400                                                                 
     2     -8.8045607     23  2.400                                                                 
     0     -4.4044681     23  2.400                                                                 
     0      1.9520038     23  2.400                                                                 
     1     -1.3605826     23  2.500                                                                 
     1     27.2116520     23  2.500                                                                 
     3     -4.0817478     23  2.400                                                                 
  local pseudopotential read in
  partial core-charges read in
  partial kinetic energy density read in
  atomic valenz-charges read in
  non local Contribution for L=            2  read in
    real space projection operators read in
  non local Contribution for L=            2  read in
    real space projection operators read in
  non local Contribution for L=            0  read in
    real space projection operators read in
  non local Contribution for L=            0  read in
    real space projection operators read in
  non local Contribution for L=            1  read in
    real space projection operators read in
  non local Contribution for L=            1  read in
    real space projection operators read in
    PAW grid and wavefunctions read in
 
   number of l-projection  operators is LMAX  =            6
   number of lm-projection operators is LMMAX =           18
 
 Optimization of the real space projectors (new method)

 maximal supplied QI-value         = 16.25
 optimisation between [QCUT,QGAM] = [ 10.73, 21.61] = [ 32.22,130.83] Ry 
 Optimized for a Real-space Cutoff    1.42 Angstroem

   l    n(q)    QCUT    max X(q) W(low)/X(q) W(high)/X(q)  e(spline) 
   2      8    10.726     4.610    0.15E-03    0.25E-03    0.14E-06
   2      8    10.726     8.522    0.25E-03    0.43E-03    0.27E-06
   0      9    10.726    51.609    0.94E-04    0.10E-03    0.12E-06
   0      9    10.726    27.747    0.85E-04    0.96E-04    0.11E-06
   1      9    10.726    20.408    0.25E-03    0.14E-03    0.12E-06
   1      9    10.726    13.425    0.22E-03    0.13E-03    0.11E-06
 Optimization of the real space projectors (new method)

 maximal supplied QI-value         = 15.12
 optimisation between [QCUT,QGAM] = [ 10.73, 21.62] = [ 32.26,130.87] Ry 
 Optimized for a Real-space Cutoff    1.42 Angstroem

   l    n(q)    QCUT    max X(q) W(low)/X(q) W(high)/X(q)  e(spline) 
   2      8    10.734    53.897    0.46E-03    0.48E-03    0.17E-06
   2      8    10.734    52.416    0.47E-03    0.50E-03    0.17E-06
   0      9    10.734   122.045    0.16E-03    0.13E-03    0.44E-07
   0      9    10.734    73.629    0.16E-03    0.13E-03    0.43E-07
   1      9    10.734    15.255    0.66E-04    0.32E-03    0.15E-06
   1      9    10.734     9.562    0.55E-04    0.26E-03    0.12E-06
 Optimization of the real space projectors (new method)

 maximal supplied QI-value         = 16.25
 optimisation between [QCUT,QGAM] = [ 10.73, 21.61] = [ 32.22,130.83] Ry 
 Optimized for a Real-space Cutoff    1.42 Angstroem

   l    n(q)    QCUT    max X(q) W(low)/X(q) W(high)/X(q)  e(spline) 
   2      8    10.726     4.610    0.15E-03    0.25E-03    0.14E-06
   2      8    10.726     8.522    0.25E-03    0.43E-03    0.27E-06
   0      9    10.726    51.609    0.94E-04    0.10E-03    0.12E-06
   0      9    10.726    27.747    0.85E-04    0.96E-04    0.11E-06
   1      9    10.726    20.408    0.25E-03    0.14E-03    0.12E-06
   1      9    10.726    13.425    0.22E-03    0.13E-03    0.11E-06
 Optimization of the real space projectors (new method)

 maximal supplied QI-value         = 15.12
 optimisation between [QCUT,QGAM] = [ 10.73, 21.62] = [ 32.26,130.87] Ry 
 Optimized for a Real-space Cutoff    1.42 Angstroem

   l    n(q)    QCUT    max X(q) W(low)/X(q) W(high)/X(q)  e(spline) 
   2      8    10.734    53.897    0.46E-03    0.48E-03    0.17E-06
   2      8    10.734    52.416    0.47E-03    0.50E-03    0.17E-06
   0      9    10.734   122.045    0.16E-03    0.13E-03    0.44E-07
   0      9    10.734    73.629    0.16E-03    0.13E-03    0.43E-07
   1      9    10.734    15.255    0.66E-04    0.32E-03    0.15E-06
   1      9    10.734     9.562    0.55E-04    0.26E-03    0.12E-06
 Optimization of the real space projectors (new method)

 maximal supplied QI-value         = 16.25
 optimisation between [QCUT,QGAM] = [ 10.73, 21.61] = [ 32.22,130.83] Ry 
 Optimized for a Real-space Cutoff    1.42 Angstroem

   l    n(q)    QCUT    max X(q) W(low)/X(q) W(high)/X(q)  e(spline) 
   2      8    10.726     4.610    0.15E-03    0.25E-03    0.14E-06
   2      8    10.726     8.522    0.25E-03    0.43E-03    0.27E-06
   0      9    10.726    51.609    0.94E-04    0.10E-03    0.12E-06
   0      9    10.726    27.747    0.85E-04    0.96E-04    0.11E-06
   1      9    10.726    20.408    0.25E-03    0.14E-03    0.12E-06
   1      9    10.726    13.425    0.22E-03    0.13E-03    0.11E-06
 Optimization of the real space projectors (new method)

 maximal supplied QI-value         = 15.12
 optimisation between [QCUT,QGAM] = [ 10.73, 21.62] = [ 32.26,130.87] Ry 
 Optimized for a Real-space Cutoff    1.42 Angstroem

   l    n(q)    QCUT    max X(q) W(low)/X(q) W(high)/X(q)  e(spline) 
   2      8    10.734    53.897    0.46E-03    0.48E-03    0.17E-06
   2      8    10.734    52.416    0.47E-03    0.50E-03    0.17E-06
   0      9    10.734   122.045    0.16E-03    0.13E-03    0.44E-07
   0      9    10.734    73.629    0.16E-03    0.13E-03    0.43E-07
   1      9    10.734    15.255    0.66E-04    0.32E-03    0.15E-06
   1      9    10.734     9.562    0.55E-04    0.26E-03    0.12E-06
 Optimization of the real space projectors (new method)

 maximal supplied QI-value         = 16.25
 optimisation between [QCUT,QGAM] = [ 10.73, 21.61] = [ 32.22,130.83] Ry 
 Optimized for a Real-space Cutoff    1.42 Angstroem

   l    n(q)    QCUT    max X(q) W(low)/X(q) W(high)/X(q)  e(spline) 
   2      8    10.726     4.610    0.15E-03    0.25E-03    0.14E-06
   2      8    10.726     8.522    0.25E-03    0.43E-03    0.27E-06
   0      9    10.726    51.609    0.94E-04    0.10E-03    0.12E-06
   0      9    10.726    27.747    0.85E-04    0.96E-04    0.11E-06
   1      9    10.726    20.408    0.25E-03    0.14E-03    0.12E-06
   1      9    10.726    13.425    0.22E-03    0.13E-03    0.11E-06
 Optimization of the real space projectors (new method)

 maximal supplied QI-value         = 15.12
 optimisation between [QCUT,QGAM] = [ 10.73, 21.62] = [ 32.26,130.87] Ry 
 Optimized for a Real-space Cutoff    1.42 Angstroem

   l    n(q)    QCUT    max X(q) W(low)/X(q) W(high)/X(q)  e(spline) 
   2      8    10.734    53.897    0.46E-03    0.48E-03    0.17E-06
   2      8    10.734    52.416    0.47E-03    0.50E-03    0.17E-06
   0      9    10.734   122.045    0.16E-03    0.13E-03    0.44E-07
   0      9    10.734    73.629    0.16E-03    0.13E-03    0.43E-07
   1      9    10.734    15.255    0.66E-04    0.32E-03    0.15E-06
   1      9    10.734     9.562    0.55E-04    0.26E-03    0.12E-06
 -----------------------------------------------------------------------------
|                                                                             |
|               ----> ADVICE to this user running VASP <----                  |
|                                                                             |
|     You enforced a specific xc type in the INCAR file but a different       |
|     type was found in the POTCAR file.                                      |
|     I HOPE YOU KNOW WHAT YOU ARE DOING!                                     |
|                                                                             |
 -----------------------------------------------------------------------------

  PAW_PBE Cu 22Jun2005                  :
 energy of atom  1       EATOM=-1390.9808
 kinetic energy error for atom=    0.0097 (will be added to EATOM!!)
  PAW_PBE Ag 02Apr2005                  :
 energy of atom  2       EATOM=-1037.2675
 kinetic energy error for atom=    0.0055 (will be added to EATOM!!)
  PAW_PBE Cu 22Jun2005                  :
 energy of atom  3       EATOM=-1390.9808
 kinetic energy error for atom=    0.0097 (will be added to EATOM!!)
  PAW_PBE Ag 02Apr2005                  :
 energy of atom  4       EATOM=-1037.2675
 kinetic energy error for atom=    0.0055 (will be added to EATOM!!)
  PAW_PBE Cu 22Jun2005                  :
 energy of atom  5       EATOM=-1390.9808
 kinetic energy error for atom=    0.0097 (will be added to EATOM!!)
  PAW_PBE Ag 02Apr2005                  :
 energy of atom  6       EATOM=-1037.2675
 kinetic energy error for atom=    0.0055 (will be added to EATOM!!)
  PAW_PBE Cu 22Jun2005                  :
 energy of atom  7       EATOM=-1390.9808
 kinetic energy error for atom=    0.0097 (will be added to EATOM!!)
  PAW_PBE Ag 02Apr2005                  :
 energy of atom  8       EATOM=-1037.2675
 kinetic energy error for atom=    0.0055 (will be added to EATOM!!)
 
 
 POSCAR: Cu Ag Cu Ag Cu Ag Cu Ag C  O
  positions in cartesian coordinates
  No initial velocities read in


 exchange-correlation table for RP
   RHO(1)=    0.500       N(1)  =     2000
   RHO(2)=  100.500       N(2)  =     4000
 


--------------------------------------------------------------------------------------------------------


 ion  position               nearest neighbor table
   1  0.000  0.000  0.394-   5 2.64   3 2.64   3 2.64   4 2.64   4 2.64   2 2.64   2 2.64   7 2.64
                             6 2.64
   2  0.500  0.000  0.394-   6 2.64   4 2.64   3 2.64   4 2.64   3 2.64   1 2.64   1 2.64   8 2.64
                             5 2.64
   3  0.000  0.500  0.394-   7 2.64   1 2.64   1 2.64   2 2.64   2 2.64   4 2.64   4 2.64   5 2.64
                             8 2.64
   4  0.500  0.500  0.394-   8 2.64   2 2.64   1 2.64   2 2.64   1 2.64   3 2.64   3 2.64   6 2.64
                             7 2.64
   5  0.167  0.167  0.465-  12 2.64   9 2.64  10 2.64   1 2.64   7 2.64   7 2.64   8 2.64   8 2.64
                             6 2.64   6 2.64   3 2.64   2 2.64
   6  0.667  0.167  0.465-  11 2.64  10 2.64   9 2.64   2 2.64   8 2.64   7 2.64   8 2.64   7 2.64
                             5 2.64   5 2.64   4 2.64   1 2.64
   7  0.167  0.667  0.465-  10 2.64  11 2.64  12 2.64   3 2.64   5 2.64   5 2.64   6 2.64   6 2.64
                             8 2.64   8 2.64   1 2.64   4 2.64
   8  0.667  0.667  0.465-   9 2.64  12 2.64  11 2.64   4 2.64   6 2.64   5 2.64   6 2.64   5 2.64
                             7 2.64   7 2.64   2 2.64   3 2.64
   9  0.833  0.333  0.535-   8 2.64   5 2.64   6 2.64  15 2.64  11 2.64  11 2.64  12 2.64  12 2.64
                            10 2.64  10 2.64  13 2.64  16 2.64
  10  0.333  0.333  0.535-   7 2.64   6 2.64   5 2.64  16 2.64  12 2.64  11 2.64  12 2.64  11 2.64
                             9 2.64   9 2.64  14 2.64  15 2.64
  11  0.833  0.833  0.535-   6 2.64   7 2.64   8 2.64  13 2.64   9 2.64   9 2.64  10 2.64  10 2.64
                            12 2.64  12 2.64  15 2.64  14 2.64
  12  0.333  0.833  0.535-   5 2.64   8 2.64   7 2.64  14 2.64  10 2.64   9 2.64  10 2.64   9 2.64
                            11 2.64  11 2.64  16 2.64  13 2.64
  13  0.000  0.000  0.606-  11 2.64  15 2.64  15 2.64  16 2.64  16 2.64  14 2.64  14 2.64   9 2.64
                            12 2.64
  14  0.500  0.000  0.606-  12 2.64  16 2.64  15 2.64  16 2.64  15 2.64  13 2.64  13 2.64  10 2.64
                            11 2.64
  15  0.000  0.500  0.606-   9 2.64  13 2.64  13 2.64  14 2.64  14 2.64  16 2.64  16 2.64  11 2.64
                            10 2.64
  16  0.500  0.500  0.606-  10 2.64  14 2.64  13 2.64  14 2.64  13 2.64  15 2.64  15 2.64  12 2.64
                             9 2.64
 
  LATTYP: Found a hexagonal cell.
 ALAT       =     5.2785521216
 C/A-ratio  =     5.7714462106
  
  Lattice vectors:
  
 A1 = (  -2.6392760608,  -4.5713602325,   0.0000000000)
 A2 = (   5.2785521216,   0.0000000000,   0.0000000000)
 A3 = (   0.0000000000,   0.0000000000,  30.4648796393)


Analysis of symmetry for initial positions (statically):
=====================================================================
 Subroutine PRICEL returns:
 Original cell was already a primitive cell.
 

 Routine SETGRP: Setting up the symmetry group for a 
 hexagonal supercell.


 Subroutine GETGRP returns: Found  1 space group operations
 (whereof  1 operations were pure point group operations)
 out of a pool of 24 trial point group operations.


The static configuration has the point symmetry C_1 .


Analysis of symmetry for dynamics (positions and initial velocities):
=====================================================================
 Subroutine PRICEL returns:
 Original cell was already a primitive cell.
 

 Routine SETGRP: Setting up the symmetry group for a 
 hexagonal supercell.


 Subroutine GETGRP returns: Found  1 space group operations
 (whereof  1 operations were pure point group operations)
 out of a pool of 24 trial point group operations.


The dynamic configuration has the point symmetry C_1 .


Analysis of constrained symmetry for selective dynamics:
=====================================================================
 Subroutine PRICEL returns:
 Original cell was already a primitive cell.
 

 Routine SETGRP: Setting up the symmetry group for a 
 hexagonal supercell.


 Subroutine GETGRP returns: Found  1 space group operations
 (whereof  1 operations were pure point group operations)
 out of a pool of 24 trial point group operations.


The constrained configuration has the point symmetry C_1 .


 Subroutine INISYM returns: Found  1 space group operations
 (whereof  1 operations are pure point group operations),
 and found     1 'primitive' translations


----------------------------------------------------------------------------------------

                                     Primitive cell                                     

  volume of cell :     735.1225

  direct lattice vectors                    reciprocal lattice vectors
     5.278552122  0.000000000  0.000000000     0.189445889 -0.109376635  0.000000000
     2.639276061  4.571360232  0.000000000     0.000000000  0.218753270  0.000000000
     0.000000000  0.000000000 30.464879639     0.000000000  0.000000000  0.032824682

  length of vectors
     5.278552122  5.278552122 30.464879639     0.218753270  0.218753270  0.032824682

  position of ions in fractional coordinates (direct lattice)
     0.000000000  0.000000000  0.393896189
     0.500000000  0.000000000  0.393896189
     1.000000000  0.500000000  0.393896189
     0.500000000  0.500000000  0.393896189
     0.166666667  0.166666667  0.464632063
     0.666666667  0.166666667  0.464632063
     0.166666667  0.666666667  0.464632063
     0.666666667  0.666666667  0.464632063
     0.833333333  0.333333333  0.535367937
     0.333333333  0.333333333  0.535367937
     0.833333333  0.833333333  0.535367937
     0.333333333  0.833333333  0.535367937
     0.000000000  0.000000000  0.606103811
     0.500000000  0.000000000  0.606103811
     1.000000000  0.500000000  0.606103811
     0.500000000  0.500000000  0.606103811

  ion indices of the primitive-cell ions
   primitive index   ion index
                 1           1
                 2           2
                 3           3
                 4           4
                 5           5
                 6           6
                 7           7
                 8           8
                 9           9
                10          10
                11          11
                12          12
                13          13
                14          14
                15          15
                16          16

----------------------------------------------------------------------------------------

 
 
 KPOINTS: Automatic mesh                          

Automatic generation of k-mesh.
 Grid dimensions read from file:
 generate k-points for:    4    4    1

 Generating k-lattice:

  Cartesian coordinates                     Fractional coordinates (reciprocal lattice)
     0.047361472 -0.027344159  0.000000000     0.250000000 -0.000000000  0.000000000
     0.000000000  0.054688318  0.000000000     0.000000000  0.250000000  0.000000000
     0.000000000  0.000000000  0.032824682     0.000000000  0.000000000  1.000000000

  Length of vectors
     0.054688318  0.054688318  0.032824682

  Shift w.r.t. Gamma in fractional coordinates (k-lattice)
     0.000000000  0.000000000  0.000000000

 
 Subroutine IBZKPT returns following result:
 ===========================================
 
 Found     10 irreducible k-points:
 
 Following reciprocal coordinates:
            Coordinates               Weight
  0.000000  0.000000  0.000000      1.000000
  0.250000  0.000000  0.000000      2.000000
  0.250000  0.250000  0.000000      2.000000
  0.000000  0.250000  0.000000      2.000000
  0.500000  0.000000  0.000000      1.000000
  0.500000  0.500000  0.000000      1.000000
  0.000000  0.500000  0.000000      1.000000
  0.500000  0.250000  0.000000      2.000000
  0.250000  0.500000  0.000000      2.000000
 -0.250000  0.250000  0.000000      2.000000
 
 Following cartesian coordinates:
            Coordinates               Weight
  0.000000  0.000000  0.000000      1.000000
  0.047361 -0.027344  0.000000      2.000000
  0.047361  0.027344  0.000000      2.000000
  0.000000  0.054688  0.000000      2.000000
  0.094723 -0.054688  0.000000      1.000000
  0.094723  0.054688  0.000000      1.000000
  0.000000  0.109377  0.000000      1.000000
  0.094723  0.000000  0.000000      2.000000
  0.047361  0.082032  0.000000      2.000000
 -0.047361  0.082032  0.000000      2.000000
 


--------------------------------------------------------------------------------------------------------




 Dimension of arrays:
   k-points           NKPTS =     10   k-points in BZ     NKDIM =     10   number of bands    NBANDS=    105
   number of dos      NEDOS =    301   number of ions     NIONS =     16
   non local maximal  LDIM  =      6   non local SUM 2l+1 LMDIM =     18
   total plane-waves  NPLWV = 125440
   max r-space proj   IRMAX =   2106   max aug-charges    IRDMAX=   8589
   dimension x,y,z NGX =    28 NGY =   28 NGZ =  160
   dimension x,y,z NGXF=    56 NGYF=   56 NGZF=  320
   support grid    NGXF=    56 NGYF=   56 NGZF=  320
   ions per type =               3   1   3   1   3   1   3   1
   NGX,Y,Z   is equivalent  to a cutoff of   8.82,  8.82,  8.73 a.u.
   NGXF,Y,Z  is equivalent  to a cutoff of  17.64, 17.64, 17.46 a.u.

 SYSTEM =  Cu-Ag alloy CO adsorption (RPBE, matches
 POSCAR =  Cu Ag Cu Ag Cu Ag Cu Ag C  O            

 Startparameter for this run:
   NWRITE =      2    write-flag & timer
   PREC   = normal    normal or accurate (medium, high low for compatibility)
   ISTART =      0    job   : 0-new  1-cont  2-samecut
   ICHARG =      2    charge: 1-file 2-atom 10-const
   ISPIN  =      1    spin polarized calculation?
   LNONCOLLINEAR =      F non collinear calculations
   LSORBIT =      F    spin-orbit coupling
   INIWAV =      1    electr: 0-lowe 1-rand  2-diag
   LASPH  =      F    aspherical Exc in radial PAW
 Electronic Relaxation 1
   ENCUT  =  450.0 eV  33.07 Ry    5.75 a.u.   9.13  9.13 52.69*2*pi/ulx,y,z
   ENINI  =  450.0     initial cutoff
   ENAUG  =  587.0 eV  augmentation charge cutoff
   NELM   =    200;   NELMIN=  2; NELMDL= -5     # of ELM steps 
   EDIFF  = 0.1E-05   stopping-criterion for ELM
   LREAL  =      T    real-space projection
   NLSPLINE    = F    spline interpolate recip. space projectors
   LCOMPAT=      F    compatible to vasp.4.4
   GGA_COMPAT  = T    GGA compatible to vasp.4.4-vasp.4.6
   LMAXPAW     = -100 max onsite density
   LMAXMIX     =    2 max onsite mixed and CHGCAR
   VOSKOWN=      0    Vosko Wilk Nusair interpolation
   ROPT   =   -0.00050  -0.00050  -0.00050  -0.00050
   ROPT   =   -0.00050  -0.00050  -0.00050  -0.00050
 Ionic relaxation
   EDIFFG = -.3E-01   stopping-criterion for IOM
   NSW    =    200    number of steps for IOM
   NBLOCK =      1;   KBLOCK =    200    inner block; outer block 
   IBRION =      2    ionic relax: 0-MD 1-quasi-New 2-CG
   NFREE  =      1    steps in history (QN), initial steepest desc. (CG)
   ISIF   =      2    stress and relaxation
   IWAVPR =     11    prediction:  0-non 1-charg 2-wave 3-comb
   ISYM   =      2    0-nonsym 1-usesym 2-fastsym
   LCORR  =      T    Harris-Foulkes like correction to forces

   POTIM  = 0.5000    time-step for ionic-motion
   TEIN   =    0.0    initial temperature
   TEBEG  =    0.0;   TEEND  =   0.0 temperature during run
   SMASS  =  -3.00    Nose mass-parameter (am)
   estimated Nose-frequenzy (Omega)   =  0.10E-29 period in steps = 0.13E+47 mass=  -0.637E-27a.u.
   SCALEE = 1.0000    scale energy and forces
   NPACO  =    256;   APACO  = 10.0  distance and # of slots for P.C.
   PSTRESS=    0.0 pullay stress

  Mass of Ions in am
   POMASS =  63.55107.87 63.55107.87 63.55107.87 63.55107.87
  Ionic Valenz
   ZVAL   =  11.00 11.00 11.00 11.00 11.00 11.00 11.00 11.00
  Atomic Wigner-Seitz radii
   RWIGS  =  -1.00 -1.00 -1.00 -1.00 -1.00 -1.00 -1.00 -1.00
  virtual crystal weights 
   VCA    =   1.00  1.00  1.00  1.00  1.00  1.00  1.00  1.00
   NELECT =     176.0000    total number of electrons
   NUPDOWN=      -1.0000    fix difference up-down

 DOS related values:
   EMIN   =  10.00;   EMAX   =-10.00  energy-range for DOS
   EFERMI =   0.00;   METHOD = LEGACY      
   ISMEAR =     0;   SIGMA  =   0.10  broadening in eV -4-tet -1-fermi 0-gaus
   EFERMI_NEDOS =   21; number of points for ismear=-14 and -15

 Electronic relaxation 2 (details)
   IALGO  =     38    algorithm
   LDIAG  =      T    sub-space diagonalisation (order eigenvalues)
   LSUBROT=      F    optimize rotation matrix (better conditioning)
   LROBUST=      F    robust break criterion during scf (extrapolated energy error)
   ISEARCH=      0    line search for conjugate gradient (0, 1=use gradient)
   TURBO    =      0    0=normal 1=particle mesh
   IRESTART =      0    0=no restart 2=restart with 2 vectors
   NREBOOT  =      0    no. of reboots
   NMIN     =      0    reboot dimension
   EREF     =   0.00    reference energy to select bands
   IMIX   =      4    mixing-type and parameters
     AMIX     =   0.40;   BMIX     =  1.00
     AMIX_MAG =   1.60;   BMIX_MAG =  1.00
     AMIN     =   0.10
     WC   =   100.;   INIMIX=   1;  MIXPRE=   1;  MAXMIX= -45

 Intra band minimization:
   WEIMIN = 0.0010     energy-eigenvalue tresh-hold
   EBREAK =  0.24E-08  absolut break condition
   DEPER  =   0.30     relativ break condition  

   TIME   =   0.40     timestep for ELM

  volume/ion in A,a.u.               =      45.95       310.05
  Fermi-wavevector in a.u.,A,eV,Ry     =   1.016543  1.920988 14.059716  1.033360
  Thomas-Fermi vector in A             =   2.149893
 
 Write flags
   LWAVE        =      F    write WAVECAR
   LDOWNSAMPLE  =      F    k-point downsampling of WAVECAR
   LCHARG       =      F    write CHGCAR
   LVTOT        =      F    write LOCPOT, total local potential
   LVHAR        =      F    write LOCPOT, Hartree potential only
   WRT_POTENTIAL= false  ! write potential to hdf5 file
   LELF         =      F    write electronic localiz. function (ELF)
   LORBIT       =     11    0 simple, 1 ext, 2 COOP (PROOUT), +10 PAW based schemes


 Python interface
   PLUGINS active      =      F    recompile with -DPLUGINS to activate
 
 Dipole corrections
   LMONO      =      F    monopole corrections only (constant potential shift)
   LDIPOL     =      F    correct potential (dipole corrections)
   IDIPOL     =      0    1-x, 2-y, 3-z, 4-all directions 
   EPSILON    =  1.0000000 bulk dielectric constant
   LVACPOTAV  =      F  vacuum potentials using an averaging scheme for the charge density
   VACPOTFLAT =  0.1000000 required flatness to determine vacuum potential
 
Coulomb truncation method
  LTRUNCATE          =      F  Coulomb kernel truncation to be used

 
 Exchange correlation treatment:
   GGA     = RP    functional components
   XC_C    = 1    coefficients multiplying the functional components
   LIBXC   =     F    Libxc                    
   VOSKOWN =     0    Vosko Wilk Nusair interpolation
   LHFCALC =     F    Hartree Fock is set to
   LHFONE  =     F    Hartree Fock one center treatment
   AEXX    =    0.0000 exact exchange contribution

 Parameters of functionals:
   RP:
     No parameter
 
 Van der Waals corrections
   IVDW    =     0    specifies the selected vdW correction

 Linear response parameters
   LEPSILON=     F    determine dielectric tensor
   LRPA    =     F    only Hartree local field effects (RPA)
   LNABLA  =     F    use nabla operator in PAW spheres
   LVEL    =     F    velocity operator in full k-point grid
   CSHIFT  =0.1000    complex shift for real part using Kramers Kronig
   OMEGAMAX=  -1.0    maximum frequency
   DEG_THRESHOLD= 0.2000000E-02 threshold for treating states as degnerate
   RTIME   =   -0.100 relaxation time in fs
  (WPLASMAI=    0.000 imaginary part of plasma frequency in eV, 0.658/RTIME)
   DFIELD  = 0.0000000 0.0000000 0.0000000 field for delta impulse in time
 
  Optional k-point grid parameters
   LKPOINTS_OPT  =     F    use optional k-point grid
   KPOINTS_OPT_MODE=     1    mode for optional k-point grid
 
 Orbital magnetization related:
   ORBITALMAG=     F  switch on orbital magnetization
   LCHIMAG   =     F  perturbation theory with respect to B field
   DQ        =  0.001000  dq finite difference perturbation B field
   LLRAUG    =     F  two centre corrections for induced B field
   LBONE     =     F  B-component reconstruction in AE one-centre
   LVGVCALC  =     T  calculate vGv susceptibility
   LVGVAPPL  =     F  apply vGv susceptibility instead of pGv for G=0

 Random number generation:
   RANDOM_GENERATOR = DEFAULT
   PCG_SEED         = not used


--------------------------------------------------------------------------------------------------------


 conjugate gradient relaxation of ions
   using selective dynamics as specified on POSCAR
   WARNING: If single coordinates had been selected the selection of coordinates
            is made according to the corresponding   d i r e c t   coordinates!
            Don't support selection of single cartesian coordinates -- sorry ... !
 charge density and potential will be updated during run
 non-spin polarized calculation
 Variant of blocked Davidson
 Davidson routine will perform the subspace rotation
 perform sub-space diagonalisation
    after iterative eigenvector-optimisation
 modified Broyden-mixing scheme, WC =      100.0
 initial mixing is a Kerker type mixing with AMIX =  0.4000 and BMIX =      1.0000
 Hartree-type preconditioning will be used
 using additional bands            17
 real space projection scheme for non local part
 use partial core corrections
 calculate Harris-corrections to forces 
   (improved forces if not selfconsistent)
 use gradient corrections 
 use of overlap-Matrix (Vanderbilt PP)
 Gauss-broadening in eV      SIGMA  =   0.10


--------------------------------------------------------------------------------------------------------


  energy-cutoff  :      450.00
  volume of cell :      735.12
      direct lattice vectors                 reciprocal lattice vectors
     5.278552122  0.000000000  0.000000000     0.189445889 -0.109376635  0.000000000
     2.639276061  4.571360232  0.000000000     0.000000000  0.218753270  0.000000000
     0.000000000  0.000000000 30.464879639     0.000000000  0.000000000  0.032824682

  length of vectors
     5.278552122  5.278552122 30.464879639     0.218753270  0.218753270  0.032824682


 
 k-points in units of 2pi/SCALE and weight: Automatic mesh                          
   0.00000000  0.00000000  0.00000000       0.063
   0.04736147 -0.02734416  0.00000000       0.125
   0.04736147  0.02734416  0.00000000       0.125
   0.00000000  0.05468832  0.00000000       0.125
   0.09472294 -0.05468832  0.00000000       0.063
   0.09472294  0.05468832  0.00000000       0.063
   0.00000000  0.10937664  0.00000000       0.063
   0.09472294  0.00000000  0.00000000       0.125
   0.04736147  0.08203248  0.00000000       0.125
  -0.04736147  0.08203248  0.00000000       0.125
 
 k-points in reciprocal lattice and weights: Automatic mesh                          
   0.00000000  0.00000000  0.00000000       0.063
   0.25000000  0.00000000  0.00000000       0.125
   0.25000000  0.25000000  0.00000000       0.125
   0.00000000  0.25000000  0.00000000       0.125
   0.50000000  0.00000000  0.00000000       0.063
   0.50000000  0.50000000  0.00000000       0.063
   0.00000000  0.50000000  0.00000000       0.063
   0.50000000  0.25000000  0.00000000       0.125
   0.25000000  0.50000000  0.00000000       0.125
  -0.25000000  0.25000000  0.00000000       0.125
 
 position of ions in fractional coordinates (direct lattice) 
   0.00000000  0.00000000  0.39389619
   0.50000000  0.00000000  0.39389619
   0.00000000  0.50000000  0.39389619
   0.50000000  0.50000000  0.39389619
   0.16666667  0.16666667  0.46463206
   0.66666667  0.16666667  0.46463206
   0.16666667  0.66666667  0.46463206
   0.66666667  0.66666667  0.46463206
   0.83333333  0.33333333  0.53536794
   0.33333333  0.33333333  0.53536794
   0.83333333  0.83333333  0.53536794
   0.33333333  0.83333333  0.53536794
   0.00000000  0.00000000  0.60610381
   0.50000000  0.00000000  0.60610381
   0.00000000  0.50000000  0.60610381
   0.50000000  0.50000000  0.60610381
 
 position of ions in cartesian coordinates  (Angst):
   0.00000000  0.00000000 12.00000000
   2.63927606  0.00000000 12.00000000
   1.31963803  2.28568012 12.00000000
   3.95891409  2.28568012 12.00000000
   1.31963803  0.76189337 14.15495988
   3.95891409  0.76189337 14.15495988
   2.63927606  3.04757349 14.15495988
   5.27855212  3.04757349 14.15495988
   5.27855212  1.52378674 16.30991976
   2.63927606  1.52378674 16.30991976
   6.59819015  3.80946686 16.30991976
   3.95891409  3.80946686 16.30991976
   0.00000000  0.00000000 18.46487964
   2.63927606  0.00000000 18.46487964
   1.31963803  2.28568012 18.46487964
   3.95891409  2.28568012 18.46487964
 


--------------------------------------------------------------------------------------------------------


 k-point     1 :   0.0000 0.0000 0.0000  plane waves:   15819
 k-point     2 :   0.2500 0.0000 0.0000  plane waves:   15918
 k-point     3 :   0.2500 0.2500 0.0000  plane waves:   15918
 k-point     4 :   0.0000 0.2500 0.0000  plane waves:   15918
 k-point     5 :   0.5000 0.0000 0.0000  plane waves:   16010
 k-point     6 :   0.5000 0.5000 0.0000  plane waves:   16010
 k-point     7 :   0.0000 0.5000 0.0000  plane waves:   16010
 k-point     8 :   0.5000 0.2500 0.0000  plane waves:   15931
 k-point     9 :   0.2500 0.5000 0.0000  plane waves:   15931
 k-point    10 :  -0.2500 0.2500 0.0000  plane waves:   15931

 maximum and minimum number of plane-waves per node :     16010    15819

 maximum number of plane-waves:     16010
 maximum index in each direction: 
   IXMAX=    9   IYMAX=    9   IZMAX=   52
   IXMIN=   -9   IYMIN=   -9   IZMIN=  -52


 serial   3D FFT for wavefunctions
 parallel 3D FFT for charge:
    minimum data exchange during FFTs selected (reduces bandwidth)


 total amount of memory used by VASP MPI-rank0   453955. kBytes
=======================================================================

   base                                    :      30000. kBytes
   nonlr-proj                              :       5609. kBytes
   fftplans                                :      34344. kBytes
   grid                                    :     109948. kBytes
   one-center                              :        248. kBytes
   wavefun                                 :     273806. kBytes
 
     INWAV:  cpu time      0.0000: real time      0.0001
 Broyden mixing: mesh for mixing (old mesh)
   NGX = 19   NGY = 19   NGZ =105
  (NGX  = 56   NGY  = 56   NGZ  =320)
  gives a total of  37905 points

 initial charge density was supplied:
 charge density of overlapping atoms calculated
 number of electron     176.0000000 magnetization 
 keeping initial charge density in first step


--------------------------------------------------------------------------------------------------------


 Maximum index for non-local projection operator          1995
 Maximum index for augmentation-charges          8129 (set IRDMAX)


--------------------------------------------------------------------------------------------------------


 First call to EWALD:  gamma=   0.196
 Maximum number of real-space cells   5x   5x   1
 Maximum number of reciprocal cells   2x   2x   8

    FEWALD:  cpu time      0.0105: real time      0.0105


--------------------------------------- Ionic step        1  -------------------------------------------




--------------------------------------- Iteration      1(   1)  ---------------------------------------


    POTLOK:  cpu time      0.0214: real time      0.0214
    SETDIJ:  cpu time      0.0149: real time      0.0149
     EDDAV:  cpu time      1.4439: real time      1.4474
       DOS:  cpu time      0.0007: real time      0.0007
    --------------------------------------------
      LOOP:  cpu time      1.4808: real time      1.4844

 eigenvalue-minimisations  :  2100
 total energy-change (2. order) : 0.1593702E+04  (-0.6654415E+04)
 number of electron     176.0000000 magnetization 
[...]
     68      -2.8967      2.00000
     69      -2.8664      2.00000
     70      -2.8533      2.00000
     71      -2.8254      2.00000
     72      -2.7780      2.00000
     73      -2.7571      2.00000
     74      -2.7128      2.00000
     75      -2.6934      2.00000
     76      -2.6771      2.00000
     77      -2.6516      2.00000
     78      -2.6197      2.00000
     79      -2.6080      2.00000
     80      -2.5755      2.00000
     81      -2.5293      2.00000
     82      -2.5092      2.00000
     83      -2.4193      2.00000
     84      -2.3858      2.00000
     85      -2.3001      2.00000
     86      -2.2195      2.00000
     87      -2.1797      2.00000
     88      -1.1421      1.99688
     89      -1.1201      1.99181
     90      -0.5557      0.00000
     91       0.9110      0.00000
     92       1.0404      0.00000
     93       1.2621      0.00000
     94       1.5350      0.00000
     95       1.8379      0.00000
     96       2.4306      0.00000
     97       2.9267      0.00000
     98       3.3381      0.00000
     99       3.4098      0.00000
    100       4.1164      0.00000
    101       4.2323      0.00000
    102       4.6280      0.00000
    103       4.9737      0.00000
    104       5.1160      0.00000
    105       5.2699      0.00000

 k-point    10 :      -0.2500    0.2500    0.0000
  band No.  band energies     occupation 
      1      -7.8982      2.00000
      2      -7.0688      2.00000
      3      -7.0015      2.00000
      4      -6.8619      2.00000
      5      -6.7220      2.00000
      6      -6.5947      2.00000
      7      -6.4596      2.00000
      8      -6.3699      2.00000
      9      -6.2766      2.00000
     10      -6.1367      2.00000
     11      -6.0956      2.00000
     12      -6.0311      2.00000
     13      -5.9229      2.00000
     14      -5.8667      2.00000
     15      -5.6972      2.00000
     16      -5.6362      2.00000
     17      -5.5894      2.00000
     18      -5.5369      2.00000
     19      -5.4547      2.00000
     20      -5.3194      2.00000
     21      -5.2659      2.00000
     22      -5.2202      2.00000
     23      -5.1228      2.00000
     24      -4.9736      2.00000
     25      -4.8605      2.00000
     26      -4.7100      2.00000
     27      -4.6028      2.00000
     28      -4.5215      2.00000
     29      -4.4070      2.00000
     30      -4.3549      2.00000
     31      -4.2317      2.00000
     32      -4.1692      2.00000
     33      -4.1428      2.00000
     34      -4.0937      2.00000
     35      -4.0522      2.00000
     36      -4.0204      2.00000
     37      -3.9921      2.00000
     38      -3.9598      2.00000
     39      -3.8874      2.00000
     40      -3.8594      2.00000
     41      -3.8385      2.00000
     42      -3.7861      2.00000
     43      -3.7337      2.00000
     44      -3.6808      2.00000
     45      -3.6422      2.00000
     46      -3.6261      2.00000
     47      -3.5688      2.00000
     48      -3.5465      2.00000
     49      -3.5071      2.00000
     50      -3.4604      2.00000
     51      -3.4259      2.00000
     52      -3.4226      2.00000
     53      -3.3847      2.00000
     54      -3.3425      2.00000
     55      -3.3314      2.00000
     56      -3.2953      2.00000
     57      -3.2776      2.00000
     58      -3.2220      2.00000
     59      -3.2049      2.00000
     60      -3.1683      2.00000
     61      -3.1202      2.00000
     62      -3.1052      2.00000
     63      -3.0581      2.00000
     64      -3.0308      2.00000
     65      -3.0079      2.00000
     66      -2.9614      2.00000
     67      -2.9505      2.00000
     68      -2.9076      2.00000
     69      -2.8799      2.00000
     70      -2.8675      2.00000
     71      -2.8166      2.00000
     72      -2.7782      2.00000
     73      -2.7421      2.00000
     74      -2.7357      2.00000
     75      -2.6885      2.00000
     76      -2.6698      2.00000
     77      -2.6578      2.00000
     78      -2.6235      2.00000
     79      -2.5992      2.00000
     80      -2.5642      2.00000
     81      -2.5589      2.00000
     82      -2.5054      2.00000
     83      -2.4173      2.00000
     84      -2.3896      2.00000
     85      -2.2886      2.00000
     86      -2.2228      2.00000
     87      -2.1818      2.00000
     88      -1.1621      1.99880
     89      -1.0977      1.98009
     90      -0.5475      0.00000
     91       0.9000      0.00000
     92       1.0670      0.00000
     93       1.2479      0.00000
     94       1.5294      0.00000
     95       1.8390      0.00000
     96       2.4312      0.00000
     97       2.9475      0.00000
     98       3.3188      0.00000
     99       3.4525      0.00000
    100       4.0619      0.00000
    101       4.2430      0.00000
    102       4.6280      0.00000
    103       4.9681      0.00000
    104       5.1165      0.00000
    105       5.2684      0.00000


--------------------------------------------------------------------------------------------------------


 soft charge-density along one line, spin component            1
         0         1         2         3         4         5         6         7         8         9
 total charge-density along one line
 
 pseudopotential strength for first ion, spin component:            1
 -8.851  -0.000  -0.001  -0.004  -0.001  -0.226   0.000   0.001
 -0.000  -8.807  -0.000   0.001  -0.003   0.000  -0.261   0.000
 -0.001  -0.000  -8.799  -0.000  -0.003   0.001   0.000  -0.268
 -0.004   0.001  -0.000  -8.804  -0.000   0.003  -0.000   0.000
 -0.001  -0.003  -0.003  -0.000  -8.849   0.001   0.002   0.002
 -0.226   0.000   0.001   0.003   0.001   7.163  -0.000   0.000
  0.000  -0.261   0.000  -0.000   0.002  -0.000   7.188  -0.000
  0.001   0.000  -0.268   0.000   0.002   0.000  -0.000   7.192
  0.003  -0.000   0.000  -0.263   0.000  -0.002  -0.000   0.000
  0.001   0.002   0.002   0.000  -0.227  -0.000  -0.002  -0.001
  0.000   0.000  -0.008   0.000  -0.000  -0.001   0.000   0.002
  0.000   0.000  -0.015   0.000  -0.000  -0.002   0.000   0.004
 -0.001  -0.009  -0.000  -0.000   0.000   0.000   0.008   0.000
 -0.000   0.000  -0.009  -0.001  -0.000  -0.000  -0.000   0.007
  0.001  -0.000   0.000  -0.009  -0.001  -0.000  -0.000  -0.000
 -0.001  -0.010  -0.000  -0.000   0.000   0.000   0.009   0.000
 -0.000   0.000  -0.010  -0.001  -0.000  -0.000  -0.000   0.008
  0.001  -0.000   0.000  -0.010  -0.001  -0.001  -0.000  -0.000
 total augmentation occupancy for first ion, spin component:            1
  1.905  -0.000   0.002  -0.005  -0.001  -0.020   0.000   0.001   0.004   0.001  -0.003   0.000   0.000  -0.000   0.007  -0.001
 -0.000   1.928  -0.000  -0.001  -0.005   0.000  -0.036   0.000  -0.001   0.004  -0.001   0.000   0.010   0.000   0.000  -0.010
  0.002  -0.000   1.923   0.000   0.000   0.001   0.000  -0.032  -0.000   0.001   0.008   0.011  -0.000   0.047  -0.000  -0.000
 -0.005  -0.001   0.000   1.926   0.000   0.004  -0.001  -0.000  -0.037   0.000   0.000   0.000  -0.000   0.001   0.010  -0.000
 -0.001  -0.005   0.000   0.000   1.907   0.001   0.004   0.001   0.000  -0.021  -0.001  -0.000   0.007   0.000   0.000  -0.001
 -0.020   0.000   0.001   0.004   0.001   0.012  -0.000   0.001   0.000   0.001  -0.007   0.001  -0.000   0.000   0.002   0.000
  0.000  -0.036   0.000  -0.001   0.004  -0.000   0.008  -0.000  -0.000   0.000   0.000  -0.000   0.013  -0.000  -0.000  -0.001
  0.001   0.000  -0.032  -0.000   0.001   0.001  -0.000   0.011  -0.000   0.001  -0.043   0.003  -0.000   0.018  -0.000   0.000
  0.004  -0.001  -0.000  -0.037   0.000   0.000  -0.000  -0.000   0.008  -0.000   0.000  -0.000   0.000  -0.000   0.013   0.000
  0.001   0.004   0.001   0.000  -0.021   0.001   0.000   0.001  -0.000   0.012  -0.004   0.001   0.002   0.000   0.000  -0.000
 -0.003  -0.001   0.008   0.000  -0.001  -0.007   0.000  -0.043   0.000  -0.004   1.580  -0.115  -0.000   0.106   0.002   0.000
  0.000   0.000   0.011   0.000  -0.000   0.001  -0.000   0.003  -0.000   0.001  -0.115   0.014  -0.000  -0.018   0.000  -0.000
  0.000   0.010  -0.000  -0.000   0.007  -0.000   0.013  -0.000   0.000   0.002  -0.000  -0.000   0.184  -0.000  -0.009  -0.011
 -0.000   0.000   0.047   0.001   0.000   0.000  -0.000   0.018  -0.000   0.000   0.106  -0.018  -0.000   0.106  -0.001  -0.000
  0.007   0.000  -0.000   0.010   0.000   0.002  -0.000  -0.000   0.013   0.000   0.002   0.000  -0.009  -0.001   0.177   0.001
 -0.001  -0.010  -0.000  -0.000  -0.001   0.000  -0.001   0.000   0.000  -0.000   0.000  -0.000  -0.011  -0.000   0.001   0.001
 -0.000   0.000  -0.015  -0.001  -0.000   0.000  -0.000  -0.001   0.000   0.000  -0.016   0.002   0.000  -0.007   0.000  -0.000
 -0.000  -0.000   0.000  -0.010  -0.001  -0.000   0.000  -0.000  -0.001   0.000  -0.000   0.000   0.001   0.000  -0.010  -0.000


------------------------ aborting loop because EDIFF is reached ----------------------------------------





 total charge

# of ion       s       p       d       tot
------------------------------------------
    1        0.430   0.252   9.193   9.875
    2        0.430   0.254   9.203   9.887
    3        0.428   0.253   9.205   9.886
    4        0.496   0.333   9.139   9.967
    5        0.413   0.319   9.192   9.924
    6        0.418   0.329   9.188   9.935
    7        0.415   0.324   9.197   9.937
    8        0.483   0.428   9.133  10.044
    9        0.413   0.308   9.194   9.915
   10        0.418   0.313   9.183   9.913
   11        0.421   0.321   9.188   9.930
   12        0.465   0.392   9.130   9.987
   13        0.426   0.245   9.200   9.871
   14        0.426   0.246   9.199   9.870
   15        0.425   0.252   9.188   9.865
   16        0.452   0.230   9.164   9.847
--------------------------------------------------
tot          6.958   4.798 146.896 158.653
 
    CHARGE:  cpu time      0.1340: real time      0.1343
    FORLOC:  cpu time      0.0126: real time      0.0126
    FORNL :  cpu time      0.4364: real time      0.4373
    STRESS:  cpu time      1.2388: real time      1.2413
    FORCOR:  cpu time      0.0209: real time      0.0210
    FORHAR:  cpu time      0.0134: real time      0.0134
    MIXING:  cpu time      0.0130: real time      0.0130
    OFIELD:  cpu time      0.0000: real time      0.0000

  FORCE on cell =-STRESS in cart. coord.  units (eV):
  Direction    XX          YY          ZZ          XY          YZ          ZX
  --------------------------------------------------------------------------------------
  Alpha Z   265.06055   265.06055   265.06055
  Ewald  146369.46647146400.67613************    -2.13884     2.83749     5.56134
  Hartree151547.75584151566.18760************    -1.66425    -0.32588     1.69138
  E(xc)   -1004.03979 -1003.97314 -1007.80551    -0.00678     0.01480     0.00921
  Local  ************************303733.08519     4.00489    -2.28853    -6.93350
  n-local  -289.56042  -289.60142  -296.17049    -0.09259     0.23144     0.21329
  augment  1498.09218  1497.67956  1506.72099    -0.06245    -0.04258    -0.11030
  Kinetic  1612.38992  1611.51825  1626.41709    -0.06629    -0.02362    -0.06106
  Fock        0.00000     0.00000     0.00000     0.00000     0.00000     0.00000
  -------------------------------------------------------------------------------------
  Total       4.68453     4.41160     2.62788    -0.02630     0.40313     0.37037
  in kB      10.20980     9.61494     5.72738    -0.05733     0.87861     0.80720
  external pressure =        8.52 kB  Pullay stress =        0.00 kB


 VOLUME and BASIS-vectors are now :
 -----------------------------------------------------------------------------
  energy-cutoff  :      450.00
  volume of cell :      735.12
      direct lattice vectors                 reciprocal lattice vectors
     5.278552122  0.000000000  0.000000000     0.189445889 -0.109376635  0.000000000
     2.639276061  4.571360232  0.000000000     0.000000000  0.218753270  0.000000000
     0.000000000  0.000000000 30.464879639     0.000000000  0.000000000  0.032824682

  length of vectors
     5.278552122  5.278552122 30.464879639     0.218753270  0.218753270  0.032824682


 FORCES acting on ions
    electron-ion (+dipol)            ewald-force                    non-local-force                 convergence-correction
 -----------------------------------------------------------------------------------------------
   -.436E+00 0.324E+00 0.386E+04   0.621E+00 -.346E+00 -.386E+04   -.164E+00 0.141E-01 -.213E+01   0.103E-03 0.385E-05 -.171E-02
   0.449E+00 0.148E+01 0.386E+04   -.617E+00 -.101E+01 -.386E+04   0.147E+00 -.235E+00 -.198E+01   -.244E-04 0.173E-03 -.155E-02
   0.990E+00 -.604E+00 0.386E+04   -.579E+00 0.332E+00 -.386E+04   -.203E+00 0.141E+00 -.195E+01   0.524E-04 0.695E-07 -.187E-02
   -.960E+00 -.116E+01 0.386E+04   0.573E+00 0.102E+01 -.386E+04   0.400E-01 -.466E-01 -.197E+01   -.412E-04 0.192E-04 -.173E-02
   0.864E+01 0.174E+02 0.128E+04   -.858E+01 -.171E+02 -.128E+04   -.118E+00 -.261E+00 -.653E+00   -.932E-04 -.103E-03 -.434E-02
   -.741E+01 -.603E-01 0.129E+04   0.731E+01 -.261E+00 -.129E+04   0.127E+00 0.835E-01 -.162E+01   -.251E-04 0.382E-05 -.504E-02
   -.119E+02 -.129E+02 0.128E+04   0.111E+02 0.129E+02 -.127E+04   0.458E+00 0.123E+00 -.112E+01   -.890E-04 0.827E-03 -.461E-02
   0.116E+02 -.350E+01 0.126E+04   -.109E+02 0.358E+01 -.126E+04   -.197E+00 0.282E-01 -.200E+00   0.124E-03 0.219E-03 -.426E-02
   0.292E+02 -.367E+02 -.131E+04   -.290E+02 0.362E+02 0.130E+04   -.258E+00 0.571E+00 0.144E+01   0.125E-02 -.105E-02 -.383E-02
   -.279E+02 -.182E+02 -.122E+04   0.278E+02 0.181E+02 0.122E+04   0.103E+00 0.163E+00 0.214E+01   0.830E-03 -.950E-02 -.703E-02
   0.128E+02 0.147E+02 -.127E+04   -.126E+02 -.145E+02 0.127E+04   -.231E+00 -.146E+00 0.376E+00   -.349E-02 -.476E-02 -.167E-02
   -.130E+02 0.403E+02 -.143E+04   0.127E+02 -.397E+02 0.143E+04   0.237E+00 -.494E+00 0.777E+00   0.233E-02 -.532E-02 -.904E-02
   -.200E+02 0.745E+01 -.381E+04   0.194E+02 -.716E+01 0.381E+04   0.571E+00 -.283E+00 0.164E+01   -.276E-03 -.643E-02 0.135E-02
   0.199E+02 0.334E+01 -.376E+04   -.194E+02 -.321E+01 0.375E+04   -.539E+00 -.123E+00 0.125E+01   -.469E-02 -.701E-02 -.156E-02
   -.374E+01 0.120E+00 -.366E+04   0.360E+01 -.157E+00 0.365E+04   0.137E+00 0.464E-01 0.118E+01   -.486E-03 -.255E-02 -.216E-02
   0.169E+01 -.118E+02 -.412E+04   -.162E+01 0.114E+02 0.411E+04   -.462E-01 0.428E+00 0.232E+01   -.361E-02 -.483E-02 -.153E-03
 -----------------------------------------------------------------------------------------------
   -.389E-01 0.274E-01 0.478E+00   0.105E-12 0.533E-13 0.182E-11   0.625E-01 0.110E-01 -.491E+00   -.813E-02 -.403E-01 -.492E-01
 
 
 POSITION                                       TOTAL-FORCE (eV/Angst)
 -----------------------------------------------------------------------------------
      0.00000      0.00000     12.00000         0.019318     -0.007057      0.190520
      2.63928      0.00000     12.00000        -0.023220      0.233273     -0.143380
      1.31964      2.28568     12.00000         0.207664     -0.131276     -0.141850
      3.95891      2.28568     12.00000        -0.347593     -0.183177     -1.395500
      1.31964      0.76189     14.15496        -0.054685      0.057906     -0.058848
      3.95891      0.76189     14.15496         0.028044     -0.237215      0.468097
      2.63928      3.04757     14.15496        -0.284803      0.091331      0.307582
      5.27855      3.04757     14.15496         0.440092      0.107169      0.743678
      5.27152      1.48385     16.35556        -0.004065      0.005951      0.009035
      2.60835      1.50467     16.25766        -0.002074      0.012448     -0.001291
      6.60247      3.84932     16.34878        -0.001333      0.004174      0.016050
      3.93677      3.76207     16.47488         0.001663      0.025696     -0.012691
      5.24631      0.10308     18.58901         0.000553      0.006791      0.008844
      2.69024      0.11442     18.53771         0.008948      0.000973      0.012202
      6.61274      2.34840     18.42094        -0.002912      0.006767     -0.005620
      3.97488      2.38872     19.02940         0.014404      0.006246      0.003174
 -----------------------------------------------------------------------------------
    total drift:                                0.015473     -0.001874     -0.062899


--------------------------------------------------------------------------------------------------------



  FREE ENERGIE OF THE ION-ELECTRON SYSTEM (eV)
  ---------------------------------------------------
  free  energy   TOTEN  =       -43.36047804 eV

  energy  without entropy=      -43.30364587  energy(sigma->0) =      -43.33206195
 d Force = 0.2983634E-03[ 0.206E-03, 0.391E-03]  d Energy = 0.2965168E-03 0.185E-05
 d Force = 0.6277810E+01[ 0.627E+01, 0.628E+01]  d Ewald  = 0.6277812E+01-0.132E-05
 


--------------------------------------------------------------------------------------------------------


    POTLOK:  cpu time      0.0278: real time      0.0279


--------------------------------------------------------------------------------------------------------


 Conjugate gradient step on ions:
 trial-energy change:   -0.000297  1 .order   -0.000298   -0.000391   -0.000206
  (g-gl).g = 0.183E-03      g.g   = 0.177E-03  gl.gl    = 0.380E-03
 g(Force)  = 0.177E-03   g(Stress)= 0.000E+00 ortho     = 0.119E-04
 gamma     =   0.48261
 trial     =   2.13895
 opt step  =   4.50863  (harmonic =   4.50863) maximal distance =0.00870961
 next E    =   -43.360594   (d E  =  -0.00041)


--------------------------------------------------------------------------------------------------------


  
 reached required accuracy - stopping structural energy minimisation
     LOOP+:  cpu time     16.2285: real time     16.2747
    4ORBIT:  cpu time      0.0000: real time      0.0000



 total charge

# of ion       s       p       d       tot
------------------------------------------
    1        0.430   0.252   9.193   9.875
    2        0.430   0.254   9.203   9.887
    3        0.428   0.253   9.205   9.886
    4        0.496   0.333   9.139   9.967
    5        0.413   0.319   9.192   9.924
    6        0.418   0.329   9.188   9.935
    7        0.415   0.324   9.197   9.937
    8        0.483   0.428   9.133  10.044
    9        0.413   0.308   9.194   9.915
   10        0.418   0.313   9.183   9.913
   11        0.421   0.321   9.188   9.930
   12        0.465   0.392   9.130   9.987
   13        0.426   0.245   9.200   9.871
   14        0.426   0.246   9.199   9.870
   15        0.425   0.252   9.188   9.865
   16        0.452   0.230   9.164   9.847
--------------------------------------------------
tot          6.958   4.798 146.896 158.653
 

 total amount of memory used by VASP MPI-rank0   453955. kBytes
=======================================================================

   base                                    :      30000. kBytes
   nonlr-proj                              :       5609. kBytes
   fftplans                                :      34344. kBytes
   grid                                    :     109948. kBytes
   one-center                              :        248. kBytes
   wavefun                                 :     273806. kBytes
 
  
  
 General timing and accounting informations for this job:
 ========================================================
  
                  Total CPU time used (sec):      656.609
                            User time (sec):      654.952
                          System time (sec):        1.657
                         Elapsed time (sec):      659.595
  
                   Maximum memory used (kb):     2043764.
                   Average memory used (kb):          N/A
  
                          Minor page faults:       864087
                          Major page faults:            0
                 Voluntary context switches:        17114
