PROCAR lm decomposed
# of k-points:   10         # of bands:  105         # of ions:   16

 k-point     1 :    0.00000000 0.00000000 0.00000000     weight = 0.06250000

band     1 # energy   -9.22568963 # occ.  2.00000000
 
ion      s     py     pz     px    dxy    dyz    dz2    dxz  x2-y2    tot
    1  0.019  0.000  0.002  0.000  0.000  0.000  0.000  0.000  0.000  0.021
    2  0.019  0.000  0.002  0.000  0.000  0.000  0.000  0.000  0.000  0.021
    3  0.019  0.000  0.002  0.000  0.000  0.000  0.000  0.000  0.000  0.021
    4  0.025  0.000  0.003  0.000  0.000  0.000  0.000  0.000  0.000  0.028
    5  0.056  0.000  0.000  0.000  0.000  0.000  0.000  0.000  0.000  0.056
    6  0.058  0.000  0.000  0.000  0.000  0.000  0.000  0.000  0.000  0.058
    7  0.057  0.000  0.000  0.000  0.000  0.000  0.000  0.000  0.000  0.057
    8  0.072  0.000  0.000  0.000  0.000  0.000  0.001  0.000  0.000  0.073
    9  0.043  0.000  0.000  0.000  0.000  0.000  0.000  0.000  0.000  0.044
   10  0.045  0.000  0.001  0.000  0.000  0.000  0.000  0.000  0.000  0.046
   11  0.046  0.000  0.000  0.000  0.000  0.000  0.000  0.000  0.000  0.046
   12  0.052  0.000  0.001  0.000  0.000  0.000  0.001  0.000  0.000  0.053
   13  0.010  0.000  0.001  0.000  0.000  0.000  0.000  0.000  0.000  0.011
   14  0.011  0.000  0.001  0.000  0.000  0.000  0.000  0.000  0.000  0.012
   15  0.012  0.000  0.001  0.000  0.000  0.000  0.000  0.000  0.000  0.013
   16  0.007  0.000  0.001  0.000  0.000  0.000  0.000  0.000  0.000  0.008
tot    0.550  0.000  0.015  0.000  0.000  0.000  0.003  0.000  0.000  0.568
 
band     2 # energy   -8.09663914 # occ.  2.00000000
 
ion      s     py     pz     px    dxy    dyz    dz2    dxz  x2-y2    tot
    1  0.037  0.000  0.001  0.000  0.000  0.000  0.002  0.000  0.000  0.040
    2  0.035  0.000  0.001  0.000  0.000  0.000  0.001  0.000  0.000  0.038
    3  0.036  0.000  0.001  0.000  0.000  0.000  0.001  0.000  0.000  0.039
    4  0.042  0.000  0.001  0.000  0.000  0.000  0.011  0.000  0.000  0.054
    5  0.017  0.000  0.004  0.000  0.000  0.000  0.001  0.000  0.000  0.022
    6  0.013  0.000  0.005  0.000  0.000  0.000  0.001  0.000  0.000  0.019
    7  0.015  0.000  0.005  0.000  0.000  0.000  0.001  0.000  0.000  0.020
    8  0.016  0.000  0.007  0.000  0.001  0.000  0.009  0.001  0.000  0.033
    9  0.030  0.000  0.003  0.000  0.000  0.000  0.002  0.000  0.000  0.035
   10  0.024  0.000  0.003  0.000  0.000  0.000  0.002  0.000  0.000  0.030
   11  0.034  0.000  0.003  0.000  0.000  0.000  0.002  0.000  0.000  0.039
   12  0.037  0.000  0.003  0.000  0.000  0.001  0.015  0.000  0.001  0.058
   13  0.037  0.000  0.002  0.000  0.000  0.000  0.000  0.000  0.000  0.039
   14  0.036  0.000  0.001  0.000  0.000  0.000  0.001  0.000  0.000  0.039
   15  0.040  0.000  0.001  0.000  0.000  0.000  0.001  0.000  0.000  0.042
   16  0.027  0.000  0.002  0.000  0.000  0.000  0.003  0.000  0.000  0.031
tot    0.476  0.000  0.044  0.000  0.001  0.001  0.051  0.001  0.001  0.577
 
band     3 # energy   -7.21457722 # occ.  2.00000000
 
ion      s     py     pz     px    dxy    dyz    dz2    dxz  x2-y2    tot
    1  0.009  0.000  0.000  0.000  0.000  0.000  0.006  0.000  0.000  0.015
    2  0.029  0.001  0.000  0.000  0.000  0.003  0.009  0.000  0.006  0.047
    3  0.030  0.000  0.000  0.001  0.004  0.000  0.009  0.003  0.003  0.049
    4  0.015  0.000  0.001  0.001  0.024  0.003  0.140  0.013  0.009  0.207
    5  0.004  0.000  0.001  0.000  0.000  0.000  0.005  0.000  0.000  0.011
    6  0.017  0.000  0.001  0.000  0.000  0.002  0.008  0.000  0.005  0.033
    7  0.022  0.000  0.001  0.000  0.003  0.000  0.006  0.002  0.002  0.036
    8  0.001  0.000  0.001  0.000  0.021  0.001  0.266  0.012  0.010  0.314
    9  0.001  0.000  0.001  0.000  0.000  0.003  0.000  0.000  0.004  0.009
   10  0.003  0.000  0.001  0.000  0.000  0.000  0.000  0.000  0.000  0.005
   11  0.000  0.000  0.002  0.000  0.003  0.000  0.002  0.003  0.001  0.011
   12  0.001  0.000  0.001  0.000  0.024  0.003  0.000  0.025  0.005  0.059
   13  0.007  0.000  0.000  0.000  0.000  0.000  0.000  0.000  0.000  0.008
   14  0.002  0.000  0.000  0.000  0.000  0.000  0.001  0.000  0.000  0.003
   15  0.003  0.000  0.000  0.000  0.000  0.000  0.000  0.000  0.000  0.004
   16  0.003  0.000  0.000  0.000  0.001  0.000  0.003  0.000  0.000  0.006
tot    0.146  0.002  0.010  0.002  0.081  0.016  0.456  0.059  0.046  0.819
 
band     4 # energy   -6.96286324 # occ.  2.00000000
 
ion      s     py     pz     px    dxy    dyz    dz2    dxz  x2-y2    tot
    1  0.001  0.000  0.000  0.000  0.000  0.001  0.000  0.000  0.001  0.003
    2  0.001  0.000  0.000  0.000  0.000  0.001  0.000  0.000  0.001  0.003
    3  0.002  0.000  0.001  0.000  0.001  0.000  0.002  0.001  0.000  0.008
    4  0.002  0.000  0.001  0.001  0.015  0.000  0.024  0.035  0.000  0.079
    5  0.003  0.000  0.000  0.000  0.000  0.003  0.001  0.000  0.016  0.022
    6  0.011  0.000  0.000  0.000  0.005  0.003  0.000  0.000  0.002  0.022
    7  0.005  0.000  0.000  0.000  0.014  0.000  0.000  0.009  0.002  0.031
    8  0.003  0.000  0.000  0.000  0.134  0.001  0.045  0.099  0.039  0.321
    9  0.005  0.000  0.001  0.000  0.000  0.000  0.003  0.000  0.003  0.012
   10  0.000  0.000  0.000  0.000  0.001  0.001  0.003  0.000  0.000  0.006
   11  0.012  0.000  0.002  0.000  0.001  0.000  0.001  0.003  0.002  0.022
   12  0.001  0.000  0.000  0.000  0.008  0.004  0.172  0.006  0.012  0.203
   13  0.016  0.000  0.000  0.000  0.002  0.000  0.007  0.001  0.001  0.026
   14  0.021  0.000  0.000  0.000  0.002  0.000  0.004  0.002  0.000  0.029
   15  0.008  0.000  0.000  0.000  0.000  0.000  0.004  0.000  0.000  0.012
   16  0.018  0.000  0.001  0.000  0.000  0.005  0.013  0.000  0.007  0.045
tot    0.107  0.001  0.008  0.002  0.184  0.020  0.279  0.157  0.086  0.843
 
band     5 # energy   -6.85312619 # occ.  2.00000000
 
ion      s     py     pz     px    dxy    dyz    dz2    dxz  x2-y2    tot
    1  0.000  0.000  0.000  0.000  0.003  0.001  0.000  0.000  0.007  0.011
    2  0.009  0.000  0.001  0.000  0.005  0.000  0.000  0.000  0.000  0.016
    3  0.006  0.000  0.001  0.000  0.002  0.000  0.000  0.004  0.006  0.019
    4  0.002  0.000  0.001  0.001  0.013  0.002  0.020  0.033  0.088  0.159
    5  0.001  0.000  0.000  0.000  0.000  0.013  0.000  0.009  0.000  0.024
    6  0.000  0.000  0.000  0.000  0.000  0.014  0.001  0.010  0.002  0.026
    7  0.001  0.000  0.000  0.000  0.001  0.002  0.000  0.000  0.001  0.005
    8  0.003  0.000  0.000  0.000  0.007  0.311  0.006  0.000  0.005  0.332
    9  0.020  0.000  0.001  0.000  0.006  0.000  0.000  0.000  0.000  0.027
   10  0.002  0.000  0.000  0.000  0.003  0.001  0.001  0.000  0.010  0.017
   11  0.004  0.000  0.000  0.000  0.002  0.000  0.002  0.004  0.007  0.020
   12  0.000  0.000  0.000  0.000  0.020  0.000  0.042  0.025  0.099  0.187
   13  0.002  0.001  0.000  0.000  0.001  0.003  0.000  0.000  0.000  0.007
   14  0.001  0.000  0.000  0.000  0.000  0.000  0.000  0.000  0.000  0.002
   15  0.000  0.000  0.000  0.000  0.000  0.001  0.000  0.000  0.000  0.003
   16  0.001  0.000  0.000  0.000  0.001  0.004  0.005  0.002  0.002  0.014
tot    0.053  0.002  0.004  0.002  0.063  0.354  0.078  0.087  0.226  0.870
 
band     6 # energy   -6.84866335 # occ.  2.00000000
 
ion      s     py     pz     px    dxy    dyz    dz2    dxz  x2-y2    tot
    1  0.000  0.001  0.000  0.000  0.000  0.006  0.000  0.000  0.001  0.009
    2  0.001  0.000  0.000  0.000  0.001  0.003  0.004  0.000  0.001  0.010
    3  0.000  0.001  0.000  0.000  0.002  0.003  0.000  0.001  0.000  0.007
    4  0.005  0.002  0.001  0.000  0.022  0.071  0.017  0.002  0.001  0.122
    5  0.014  0.000  0.000  0.000  0.023  0.002  0.000  0.001  0.007  0.048
    6  0.005  0.000  0.000  0.000  0.018  0.000  0.000  0.001  0.019  0.043
    7  0.024  0.000  0.000  0.000  0.001  0.000  0.000  0.003  0.019  0.048
    8  0.002  0.000  0.000  0.000  0.014  0.008  0.030  0.035  0.378  0.467
    9  0.001  0.000  0.000  0.000  0.001  0.002  0.002  0.000  0.002  0.008
   10  0.002  0.001  0.000  0.000  0.001  0.007  0.000  0.000  0.000  0.012
   11  0.002  0.001  0.000  0.000  0.001  0.004  0.001  0.001  0.000  0.011
   12  0.000  0.000  0.000  0.000  0.009  0.044  0.001  0.012  0.012  0.078
   13  0.000  0.000  0.000  0.000  0.000  0.000  0.000  0.000  0.000  0.001
   14  0.000  0.000  0.000  0.000  0.000  0.000  0.000  0.000  0.000  0.001
   15  0.000  0.000  0.000  0.000  0.000  0.000  0.000  0.000  0.000  0.001
   16  0.000  0.000  0.000  0.000  0.000  0.000  0.002  0.001  0.001  0.004
tot    0.056  0.005  0.003  0.001  0.094  0.151  0.057  0.058  0.443  0.868
 
band     7 # energy   -6.71861997 # occ.  2.00000000
 
ion      s     py     pz     px    dxy    dyz    dz2    dxz  x2-y2    tot
    1  0.000  0.000  0.000  0.001  0.001  0.000  0.000  0.006  0.000  0.009
    2  0.000  0.000  0.000  0.001  0.003  0.001  0.000  0.009  0.000  0.014
    3  0.002  0.000  0.000  0.000  0.000  0.002  0.001  0.000  0.000  0.005
    4  0.000  0.001  0.000  0.000  0.003  0.052  0.000  0.001  0.010  0.067
    5  0.016  0.000  0.000  0.000  0.002  0.001  0.000  0.000  0.016  0.036
    6  0.014  0.000  0.001  0.000  0.002  0.003  0.000  0.000  0.017  0.038
    7  0.000  0.000  0.000  0.000  0.030  0.000  0.000  0.013  0.000  0.043
    8  0.000  0.000  0.000  0.000  0.292  0.003  0.000  0.124  0.000  0.420
    9  0.001  0.000  0.000  0.001  0.006  0.002  0.000  0.010  0.000  0.020
   10  0.002  0.000  0.000  0.001  0.002  0.001  0.001  0.007  0.004  0.018
   11  0.006  0.000  0.000  0.000  0.001  0.001  0.002  0.000  0.001  0.013
   12  0.000  0.000  0.000  0.000  0.022  0.079  0.005  0.001  0.040  0.147
   13  0.004  0.000  0.000  0.000  0.000  0.000  0.000  0.001  0.000  0.007
   14  0.002  0.000  0.000  0.000  0.000  0.000  0.002  0.001  0.001  0.005
   15  0.001  0.000  0.000  0.000  0.000  0.001  0.001  0.000  0.000  0.003
   16  0.001  0.000  0.000  0.000  0.000  0.000  0.007  0.000  0.002  0.010
tot    0.049  0.003  0.002  0.005  0.364  0.146  0.020  0.174  0.091  0.855
 
band     8 # energy   -6.62628827 # occ.  2.00000000
 
ion      s     py     pz     px    dxy    dyz    dz2    dxz  x2-y2    tot
    1  0.022  0.000  0.000  0.000  0.009  0.000  0.007  0.000  0.000  0.038
    2  0.013  0.000  0.000  0.000  0.007  0.000  0.003  0.000  0.004  0.028
    3  0.000  0.000  0.001  0.000  0.001  0.000  0.007  0.001  0.001  0.013
    4  0.015  0.000  0.000  0.000  0.009  0.002  0.024  0.000  0.079  0.128
    5  0.008  0.000  0.002  0.000  0.000  0.004  0.001  0.000  0.006  0.021
    6  0.000  0.000  0.003  0.000  0.001  0.001  0.002  0.000  0.001  0.008
    7  0.003  0.000  0.000  0.000  0.004  0.001  0.007  0.004  0.001  0.020
    8  0.013  0.000  0.002  0.000  0.051  0.005  0.008  0.059  0.012  0.150
    9  0.018  0.000  0.001  0.000  0.009  0.001  0.005  0.000  0.003  0.037
   10  0.000  0.000  0.002  0.000  0.001  0.001  0.000  0.000  0.011  0.015
   11  0.000  0.000  0.001  0.000  0.012  0.000  0.002  0.002  0.001  0.019
   12  0.008  0.000  0.005  0.000  0.128  0.000  0.002  0.046  0.037  0.226
   13  0.005  0.000  0.001  0.000  0.000  0.000  0.009  0.001  0.000  0.017
   14  0.024  0.000  0.000  0.000  0.000  0.000  0.000  0.000  0.000  0.025
   15  0.013  0.000  0.000  0.000  0.001  0.000  0.003  0.000  0.000  0.017
   16  0.011  0.000  0.000  0.000  0.003  0.000  0.032  0.000  0.000  0.047
tot    0.153  0.001  0.019  0.001  0.236  0.014  0.114  0.115  0.157  0.810
 
band     9 # energy   -6.56268874 # occ.  2.00000000
 
ion      s     py     pz     px    dxy    dyz    dz2    dxz  x2-y2    tot
    1  0.001  0.000  0.000  0.000  0.002  0.001  0.001  0.000  0.007  0.011
    2  0.002  0.000  0.001  0.000  0.005  0.000  0.001  0.000  0.001  0.009
    3  0.010  0.000  0.000  0.000  0.001  0.001  0.002  0.000  0.005  0.019
    4  0.000  0.000  0.001  0.000  0.017  0.001  0.031  0.008  0.075  0.132
    5  0.003  0.001  0.000  0.000  0.004  0.000  0.005  0.002  0.000  0.015
    6  0.005  0.000  0.001  0.000  0.005  0.002  0.001  0.001  0.000  0.016
    7  0.001  0.000  0.000  0.000  0.000  0.001  0.013  0.003  0.000  0.019
    8  0.008  0.000  0.000  0.001  0.000  0.002  0.006  0.027  0.026  0.069
    9  0.000  0.000  0.000  0.000  0.001  0.000  0.006  0.000  0.013  0.021
   10  0.034  0.000  0.000  0.000  0.012  0.002  0.010  0.000  0.008  0.066
   11  0.001  0.000  0.000  0.000  0.020  0.000  0.006  0.002  0.000  0.029
   12  0.004  0.000  0.001  0.000  0.191  0.005  0.105  0.014  0.029  0.349
   13  0.016  0.000  0.000  0.000  0.002  0.000  0.001  0.000  0.000  0.021
   14  0.002  0.000  0.001  0.000  0.001  0.001  0.011  0.000  0.001  0.018
   15  0.002  0.000  0.000  0.000  0.001  0.000  0.002  0.001  0.000  0.008
   16  0.008  0.000  0.000  0.000  0.004  0.007  0.018  0.003  0.008  0.049
tot    0.097  0.002  0.005  0.002  0.268  0.023  0.219  0.062  0.173  0.852
 
band    10 # energy   -6.45611900 # occ.  2.00000000
 
ion      s     py     pz     px    dxy    dyz    dz2    dxz  x2-y2    tot
    1  0.013  0.000  0.000  0.000  0.003  0.000  0.005  0.000  0.016  0.038
    2  0.007  0.000  0.000  0.000  0.002  0.001  0.000  0.000  0.014  0.024
    3  0.001  0.000  0.000  0.000  0.026  0.000  0.000  0.002  0.000  0.029
    4  0.000  0.000  0.000  0.000  0.289  0.002  0.017  0.026  0.000  0.334
    5  0.001  0.000  0.000  0.001  0.001  0.000  0.000  0.000  0.000  0.003
    6  0.001  0.000  0.000  0.001  0.001  0.000  0.001  0.000  0.000  0.004
    7  0.001  0.001  0.001  0.000  0.000  0.000  0.006  0.000  0.000  0.009
    8  0.005  0.000  0.002  0.001  0.002  0.000  0.004  0.008  0.001  0.024
    9  0.004  0.000  0.000  0.000  0.001  0.001  0.003  0.000  0.023  0.031
   10  0.007  0.000  0.000  0.000  0.009  0.001  0.000  0.000  0.000  0.016
   11  0.009  0.000  0.000  0.000  0.013  0.000  0.005  0.003  0.008  0.037
   12  0.000  0.000  0.000  0.000  0.144  0.000  0.031  0.017  0.105  0.297
   13  0.001  0.000  0.000  0.000  0.001  0.000  0.004  0.001  0.000  0.007
   14  0.001  0.000  0.000  0.000  0.000  0.002  0.000  0.001  0.001  0.006
   15  0.000  0.000  0.000  0.001  0.000  0.001  0.000  0.002  0.000  0.004
   16  0.002  0.000  0.000  0.000  0.001  0.000  0.000  0.009  0.004  0.017
tot    0.051  0.002  0.004  0.005  0.492  0.008  0.077  0.068  0.173  0.880
 
band    11 # energy   -6.38144859 # occ.  2.00000000
 
ion      s     py     pz     px    dxy    dyz    dz2    dxz  x2-y2    tot
    1  0.017  0.000  0.000  0.000  0.009  0.000  0.005  0.001  0.005  0.036
    2  0.001  0.000  0.000  0.000  0.001  0.001  0.001  0.001  0.015  0.021
    3  0.000  0.000  0.000  0.000  0.016  0.000  0.000  0.003  0.001  0.020
    4  0.006  0.000  0.000  0.000  0.159  0.023  0.001  0.041  0.035  0.266
    5  0.000  0.000  0.000  0.000  0.000  0.001  0.006  0.006  0.001  0.015
    6  0.002  0.000  0.000  0.000  0.000  0.000  0.001  0.010  0.001  0.015
    7  0.001  0.000  0.002  0.000  0.000  0.007  0.001  0.005  0.004  0.020
    8  0.000  0.000  0.000  0.001  0.001  0.025  0.003  0.044  0.018  0.092
    9  0.002  0.000  0.001  0.000  0.009  0.001  0.002  0.000  0.005  0.020
   10  0.001  0.000  0.000  0.000  0.008  0.002  0.000  0.001  0.009  0.020
   11  0.007  0.000  0.000  0.000  0.001  0.000  0.005  0.009  0.012  0.034
   12  0.000  0.000  0.000  0.000  0.004  0.004  0.001  0.065  0.203  0.277
   13  0.004  0.000  0.000  0.000  0.000  0.000  0.000  0.000  0.001  0.006
   14  0.000  0.001  0.000  0.000  0.000  0.003  0.002  0.000  0.001  0.009
   15  0.001  0.000  0.000  0.000  0.002  0.001  0.000  0.000  0.000  0.005
   16  0.002  0.000  0.000  0.000  0.012  0.001  0.001  0.002  0.000  0.018
tot    0.045  0.002  0.006  0.003  0.221  0.071  0.029  0.190  0.309  0.874
 
band    12 # energy   -6.33446981 # occ.  2.00000000
 
ion      s     py     pz     px    dxy    dyz    dz2    dxz  x2-y2    tot
    1  0.000  0.000  0.000  0.000  0.009  0.000  0.000  0.001  0.005  0.016
    2  0.000  0.000  0.000  0.000  0.007  0.000  0.000  0.001  0.007  0.015
    3  0.010  0.000  0.000  0.000  0.000  0.001  0.008  0.000  0.013  0.032
    4  0.004  0.000  0.000  0.000  0.001  0.007  0.001  0.002  0.199  0.214
    5  0.000  0.000  0.000  0.000  0.000  0.000  0.003  0.002  0.001  0.007
    6  0.001  0.000  0.000  0.000  0.000  0.002  0.004  0.001  0.000  0.008
    7  0.000  0.000  0.001  0.000  0.000  0.004  0.001  0.003  0.002  0.010
    8  0.002  0.001  0.004  0.000  0.005  0.001  0.002  0.071  0.005  0.090
    9  0.001  0.000  0.000  0.000  0.003  0.012  0.000  0.003  0.000  0.020
   10  0.002  0.000  0.000  0.000  0.001  0.000  0.001  0.002  0.008  0.014
   11  0.004  0.000  0.000  0.000  0.004  0.000  0.007  0.011  0.005  0.030
   12  0.003  0.000  0.002  0.000  0.031  0.070  0.001  0.156  0.059  0.321
   13  0.000  0.000  0.001  0.000  0.000  0.003  0.004  0.001  0.001  0.010
   14  0.009  0.000  0.000  0.000  0.001  0.001  0.004  0.000  0.003  0.018
   15  0.005  0.000  0.000  0.001  0.004  0.000  0.002  0.002  0.000  0.014
   16  0.009  0.000  0.001  0.000  0.025  0.000  0.000  0.015  0.000  0.051
tot    0.050  0.002  0.009  0.002  0.090  0.101  0.038  0.270  0.308  0.871
 
band    13 # energy   -6.15232915 # occ.  2.00000000
 
ion      s     py     pz     px    dxy    dyz    dz2    dxz  x2-y2    tot
    1  0.001  0.000  0.000  0.000  0.003  0.003  0.001  0.003  0.008  0.019
    2  0.003  0.000  0.001  0.000  0.008  0.009  0.018  0.004  0.000  0.044
    3  0.000  0.000  0.000  0.000  0.004  0.000  0.002  0.000  0.003  0.009
    4  0.001  0.001  0.000  0.000  0.043  0.101  0.008  0.000  0.091  0.245
    5  0.001  0.000  0.000  0.000  0.013  0.014  0.010  0.000  0.000  0.039
    6  0.000  0.000  0.001  0.000  0.011  0.007  0.018  0.000  0.001  0.038
    7  0.000  0.000  0.000  0.000  0.000  0.003  0.005  0.003  0.000  0.011
    8  0.010  0.000  0.000  0.000  0.002  0.088  0.000  0.023  0.071  0.195
    9  0.000  0.000  0.001  0.000  0.002  0.020  0.011  0.001  0.000  0.036
   10  0.000  0.000  0.000  0.000  0.001  0.005  0.000  0.001  0.001  0.008
   11  0.001  0.000  0.000  0.000  0.001  0.005  0.000  0.001  0.000  0.007
   12  0.004  0.000  0.000  0.000  0.012  0.137  0.000  0.008  0.006  0.167
   13  0.003  0.000  0.000  0.000  0.001  0.000  0.000  0.001  0.000  0.006
   14  0.000  0.000  0.000  0.000  0.000  0.000  0.000  0.000  0.005  0.006
   15  0.001  0.000  0.000  0.000  0.002  0.000  0.000  0.000  0.002  0.005
   16  0.001  0.000  0.001  0.000  0.011  0.004  0.027  0.001  0.013  0.057
tot    0.025  0.002  0.005  0.001  0.113  0.397  0.100  0.046  0.201  0.891
 
band    14 # energy   -6.08731782 # occ.  2.00000000
 
ion      s     py     pz     px    dxy    dyz    dz2    dxz  x2-y2    tot
    1  0.000  0.000  0.000  0.000  0.003  0.005  0.000  0.000  0.000  0.008
    2  0.001  0.000  0.000  0.000  0.002  0.004  0.000  0.000  0.002  0.009
    3  0.003  0.000  0.000  0.001  0.000  0.000  0.003  0.018  0.001  0.026
    4  0.001  0.000  0.000  0.001  0.006  0.000  0.000  0.181  0.036  0.227
    5  0.000  0.000  0.000  0.001  0.001  0.000  0.001  0.001  0.000  0.005
    6  0.000  0.000  0.000  0.001  0.001  0.000  0.001  0.003  0.001  0.008
    7  0.000  0.001  0.005  0.000  0.002  0.002  0.000  0.005  0.000  0.016
    8  0.003  0.001  0.000  0.000  0.008  0.010  0.023  0.002  0.008  0.054
    9  0.000  0.000  0.001  0.000  0.000  0.000  0.001  0.001  0.000  0.004
   10  0.001  0.000  0.000  0.000  0.000  0.011  0.000  0.001  0.000  0.014
   11  0.000  0.000  0.000  0.001  0.000  0.001  0.002  0.008  0.000  0.011
   12  0.004  0.000  0.000  0.001  0.000  0.073  0.014  0.109  0.002  0.204
   13  0.011  0.000  0.000  0.000  0.000  0.001  0.001  0.001  0.025  0.039
   14  0.006  0.000  0.001  0.001  0.007  0.002  0.001  0.004  0.001  0.021
   15  0.010  0.000  0.000  0.000  0.017  0.000  0.002  0.001  0.003  0.034
   16  0.004  0.000  0.000  0.000  0.127  0.001  0.003  0.010  0.042  0.188
tot    0.044  0.002  0.008  0.007  0.176  0.110  0.053  0.346  0.121  0.868
 
band    15 # energy   -5.86511129 # occ.  2.00000000
 
ion      s     py     pz     px    dxy    dyz    dz2    dxz  x2-y2    tot
    1  0.000  0.000  0.000  0.000  0.000  0.003  0.000  0.000  0.000  0.004
    2  0.000  0.000  0.000  0.000  0.000  0.001  0.000  0.000  0.000  0.002
    3  0.000  0.000  0.000  0.000  0.000  0.001  0.002  0.002  0.000  0.006
    4  0.000  0.000  0.000  0.000  0.009  0.018  0.005  0.021  0.000  0.053
    5  0.001  0.001  0.002  0.000  0.002  0.000  0.008  0.000  0.003  0.017
    6  0.000  0.000  0.001  0.000  0.000  0.001  0.000  0.001  0.000  0.003
    7  0.000  0.000  0.000  0.000  0.002  0.000  0.006  0.000  0.002  0.011
    8  0.001  0.001  0.001  0.000  0.042  0.016  0.019  0.000  0.001  0.080
    9  0.000  0.000  0.001  0.000  0.000  0.001  0.001  0.004  0.000  0.007
   10  0.001  0.000  0.000  0.000  0.000  0.002  0.004  0.004  0.000  0.011
   11  0.002  0.000  0.000  0.000  0.000  0.000  0.001  0.000  0.000  0.004
   12  0.009  0.000  0.001  0.000  0.004  0.095  0.036  0.000  0.001  0.147
   13  0.000  0.000  0.000  0.000  0.027  0.003  0.000  0.000  0.005  0.036
   14  0.000  0.000  0.000  0.000  0.022  0.002  0.000  0.000  0.013  0.037
   15  0.024  0.000  0.001  0.000  0.001  0.001  0.007  0.000  0.007  0.042
   16  0.000  0.000  0.001  0.000  0.009  0.044  0.065  0.001  0.304  0.424
tot    0.040  0.004  0.006  0.001  0.121  0.187  0.155  0.033  0.337  0.884
 
band    16 # energy   -5.81638390 # occ.  2.00000000
 
ion      s     py     pz     px    dxy    dyz    dz2    dxz  x2-y2    tot
    1  0.000  0.000  0.000  0.000  0.000  0.004  0.000  0.000  0.000  0.005
    2  0.000  0.001  0.000  0.000  0.002  0.019  0.004  0.000  0.001  0.028
    3  0.001  0.001  0.000  0.000  0.000  0.006  0.000  0.003  0.003  0.013
    4  0.005  0.000  0.000  0.000  0.011  0.118  0.000  0.021  0.001  0.156
    5  0.000  0.001  0.001  0.000  0.000  0.000  0.000  0.000  0.000  0.003
    6  0.000  0.001  0.001  0.000  0.004  0.016  0.007  0.000  0.002  0.031
    7  0.000  0.001  0.000  0.000  0.001  0.003  0.000  0.003  0.001  0.009
    8  0.005  0.001  0.000  0.000  0.035  0.040  0.011  0.042  0.001  0.135
    9  0.000  0.001  0.001  0.000  0.000  0.002  0.003  0.001  0.000  0.009
   10  0.000  0.000  0.000  0.000  0.000  0.006  0.002  0.000  0.001  0.009
   11  0.000  0.000  0.000  0.000  0.001  0.005  0.000  0.000  0.001  0.007
   12  0.001  0.001  0.000  0.000  0.005  0.060  0.048  0.001  0.007  0.125
   13  0.008  0.001  0.000  0.000  0.010  0.003  0.000  0.000  0.003  0.025
   14  0.000  0.000  0.000  0.000  0.004  0.001  0.000  0.000  0.023  0.029
   15  0.008  0.000  0.000  0.000  0.004  0.001  0.001  0.000  0.013  0.027
   16  0.001  0.000  0.001  0.000  0.037  0.041  0.012  0.002  0.181  0.275
tot    0.030  0.010  0.004  0.001  0.116  0.325  0.089  0.073  0.237  0.885
 
band    17 # energy   -5.73823491 # occ.  2.00000000
 
ion      s     py     pz     px    dxy    dyz    dz2    dxz  x2-y2    tot
    1  0.000  0.000  0.000  0.000  0.000  0.002  0.000  0.000  0.000  0.002
    2  0.000  0.000  0.000  0.000  0.000  0.002  0.000  0.000  0.000  0.003
    3  0.000  0.000  0.000  0.000  0.000  0.000  0.000  0.007  0.000  0.007
    4  0.001  0.000  0.000  0.000  0.000  0.000  0.005  0.103  0.000  0.109
    5  0.000  0.000  0.000  0.001  0.000  0.000  0.000  0.000  0.000  0.002
    6  0.000  0.000  0.000  0.001  0.000  0.001  0.000  0.000  0.000  0.002
    7  0.000  0.001  0.002  0.000  0.001  0.000  0.000  0.005  0.001  0.010
    8  0.000  0.000  0.001  0.000  0.000  0.001  0.000  0.002  0.002  0.006
    9  0.001  0.000  0.000  0.000  0.000  0.004  0.005  0.000  0.000  0.011
   10  0.000  0.000  0.000  0.000  0.000  0.002  0.006  0.001  0.000  0.010
   11  0.000  0.000  0.000  0.000  0.000  0.000  0.000  0.008  0.000  0.009
   12  0.001  0.000  0.000  0.000  0.004  0.000  0.003  0.116  0.001  0.125
   13  0.003  0.000  0.000  0.000  0.001  0.002  0.006  0.000  0.030  0.042
   14  0.011  0.001  0.001  0.000  0.004  0.004  0.012  0.001  0.016  0.050
   15  0.000  0.000  0.000  0.001  0.038  0.000  0.000  0.003  0.001  0.043
   16  0.000  0.000  0.000  0.000  0.408  0.003  0.003  0.038  0.012  0.464
tot    0.018  0.003  0.006  0.004  0.457  0.021  0.042  0.285  0.062  0.897
 
band    18 # energy   -5.50235386 # occ.  2.00000000
 
ion      s     py     pz     px    dxy    dyz    dz2    dxz  x2-y2    tot
    1  0.000  0.000  0.000  0.000  0.004  0.001  0.000  0.001  0.001  0.006
    2  0.000  0.000  0.000  0.000  0.003  0.007  0.000  0.000  0.000  0.010
    3  0.001  0.000  0.000  0.000  0.000  0.002  0.000  0.010  0.002  0.016
    4  0.005  0.000  0.001  0.000  0.004  0.004  0.029  0.125  0.003  0.171
    5  0.000  0.000  0.000  0.000  0.003  0.000  0.000  0.000  0.004  0.008
    6  0.000  0.001  0.000  0.000  0.007  0.011  0.005  0.000  0.006  0.030
    7  0.000  0.000  0.000  0.002  0.000  0.006  0.024  0.005  0.024  0.061
    8  0.004  0.000  0.002  0.002  0.003  0.013  0.087  0.033  0.034  0.178
    9  0.000  0.000  0.000  0.000  0.000  0.000  0.000  0.006  0.000  0.007
   10  0.000  0.000  0.000  0.000  0.001  0.001  0.000  0.007  0.000  0.010
   11  0.000  0.000  0.001  0.000  0.000  0.001  0.000  0.000  0.001  0.003
   12  0.004  0.000  0.000  0.000  0.001  0.058  0.069  0.007  0.015  0.154
   13  0.001  0.000  0.000  0.002  0.006  0.001  0.001  0.011  0.000  0.022
   14  0.002  0.001  0.001  0.002  0.007  0.003  0.004  0.013  0.000  0.031
   15  0.000  0.000  0.000  0.000  0.000  0.001  0.000  0.000  0.000  0.002
   16  0.002  0.000  0.000  0.000  0.005  0.104  0.015  0.002  0.062  0.192
tot    0.021  0.004  0.005  0.009  0.044  0.212  0.234  0.221  0.153  0.903
 
band    19 # energy   -5.41885165 # occ.  2.00000000
 
ion      s     py     pz     px    dxy    dyz    dz2    dxz  x2-y2    tot
    1  0.000  0.000  0.000  0.000  0.001  0.013  0.000  0.008  0.002  0.025
    2  0.001  0.000  0.000  0.000  0.004  0.000  0.005  0.005  0.000  0.016
    3  0.000  0.000  0.000  0.000  0.001  0.000  0.001  0.001  0.000  0.004
    4  0.000  0.000  0.000  0.000  0.025  0.282  0.007  0.037  0.024  0.376
    5  0.000  0.001  0.000  0.000  0.005  0.010  0.000  0.001  0.001  0.017
    6  0.001  0.000  0.001  0.000  0.008  0.000  0.016  0.000  0.000  0.026
    7  0.000  0.000  0.001  0.001  0.001  0.001  0.004  0.000  0.000  0.008
    8  0.000  0.001  0.000  0.001  0.008  0.152  0.034  0.024  0.032  0.251
    9  0.000  0.001  0.001  0.000  0.025  0.003  0.002  0.002  0.004  0.038
   10  0.001  0.001  0.000  0.000  0.017  0.000  0.002  0.002  0.003  0.025
   11  0.000  0.000  0.000  0.000  0.000  0.002  0.000  0.000  0.023  0.026
   12  0.005  0.001  0.000  0.000  0.007  0.007  0.030  0.004  0.002  0.056
   13  0.000  0.000  0.000  0.000  0.000  0.001  0.000  0.001  0.000  0.002
   14  0.000  0.000  0.000  0.000  0.000  0.001  0.000  0.001  0.001  0.003
   15  0.000  0.000  0.000  0.000  0.000  0.000  0.001  0.002  0.001  0.004
   16  0.000  0.000  0.000  0.000  0.002  0.001  0.003  0.028  0.002  0.036
tot    0.010  0.005  0.004  0.002  0.105  0.473  0.106  0.113  0.097  0.914
 
band    20 # energy   -5.33650293 # occ.  2.00000000
 
ion      s     py     pz     px    dxy    dyz    dz2    dxz  x2-y2    tot
    1  0.003  0.000  0.000  0.000  0.011  0.000  0.002  0.000  0.005  0.023
    2  0.001  0.000  0.000  0.000  0.020  0.000  0.002  0.000  0.009  0.033
    3  0.001  0.000  0.001  0.000  0.000  0.000  0.006  0.000  0.035  0.044
    4  0.000  0.000  0.000  0.000  0.009  0.000  0.253  0.008  0.011  0.282
    5  0.003  0.000  0.000  0.000  0.008  0.001  0.006  0.000  0.003  0.022
    6  0.000  0.000  0.002  0.000  0.015  0.000  0.000  0.000  0.005  0.022
    7  0.001  0.000  0.001  0.000  0.000  0.000  0.002  0.000  0.020  0.024
    8  0.000  0.000  0.002  0.000  0.006  0.001  0.133  0.043  0.003  0.188
    9  0.001  0.000  0.000  0.000  0.003  0.001  0.004  0.004  0.001  0.014
   10  0.000  0.000  0.000  0.000  0.008  0.000  0.002  0.004  0.002  0.016
   11  0.005  0.000  0.000  0.000  0.000  0.000  0.003  0.002  0.007  0.017
   12  0.000  0.000  0.002  0.000  0.008  0.025  0.013  0.007  0.000  0.056
   13  0.000  0.001  0.001  0.000  0.006  0.004  0.007  0.003  0.003  0.026
   14  0.000  0.000  0.000  0.000  0.005  0.000  0.000  0.001  0.001  0.008
   15  0.000  0.000  0.001  0.000  0.000  0.000  0.003  0.000  0.005  0.010
   16  0.003  0.000  0.000  0.000  0.003  0.057  0.046  0.012  0.004  0.125
tot    0.020  0.002  0.011  0.002  0.104  0.090  0.483  0.086  0.113  0.911
 
band    21 # energy   -5.20591567 # occ.  2.00000000
 
ion      s     py     pz     px    dxy    dyz    dz2    dxz  x2-y2    tot
    1  0.001  0.000  0.000  0.000  0.009  0.002  0.003  0.000  0.002  0.017
    2  0.003  0.000  0.000  0.000  0.009  0.000  0.000  0.000  0.002  0.014
    3  0.003  0.000  0.000  0.000  0.000  0.001  0.000  0.000  0.008  0.013
    4  0.000  0.000  0.000  0.000  0.000  0.022  0.029  0.011  0.002  0.064
    5  0.000  0.000  0.001  0.000  0.009  0.000  0.005  0.002  0.006  0.024
    6  0.004  0.000  0.003  0.000  0.005  0.001  0.001  0.002  0.003  0.018
    7  0.001  0.000  0.000  0.000  0.000  0.001  0.000  0.000  0.014  0.016
    8  0.001  0.000  0.001  0.000  0.007  0.017  0.015  0.001  0.003  0.045
    9  0.002  0.000  0.000  0.001  0.043  0.001  0.004  0.000  0.014  0.066
   10  0.004  0.000  0.000  0.000  0.045  0.000  0.009  0.000  0.012  0.071
   11  0.002  0.000  0.001  0.000  0.000  0.000  0.001  0.000  0.053  0.057
   12  0.012  0.000  0.002  0.000  0.000  0.000  0.087  0.000  0.001  0.102
   13  0.001  0.001  0.000  0.001  0.000  0.014  0.000  0.009  0.000  0.025
   14  0.000  0.001  0.000  0.001  0.000  0.007  0.000  0.007  0.000  0.016
   15  0.000  0.000  0.000  0.000  0.000  0.001  0.004  0.001  0.001  0.007
   16  0.000  0.000  0.000  0.000  0.000  0.299  0.015  0.016  0.002  0.333