<?xml version="1.0" encoding="ISO-8859-1"?>
<modeling>
 <generator>
  <i name="program" type="string">vasp </i>
  <i name="version" type="string">6.5.1  </i>
  <i name="subversion" type="string">10Mar25 (build Mar 14 2026 15:48:08) complex                          parallel </i>
  <i name="platform" type="string">LinuxNV </i>
  <i name="date" type="string">2026 03 23 </i>
  <i name="time" type="string">15:57:07 </i>
 </generator>
 <incar>
  <i type="string" name="SYSTEM">Cu-Ag alloy CO adsorption (RPBE, matches CatHub)</i>
  <i type="string" name="PREC">Normal</i>
  <i type="string" name="ALGO">Normal</i>
  <i type="int" name="ISPIN">     1</i>
  <i type="int" name="NELM">   200</i>
  <i type="int" name="IBRION">     2</i>
  <i name="EDIFF">      0.00000100</i>
  <i name="EDIFFG">     -0.03000000</i>
  <i type="int" name="NSW">   200</i>
  <i type="int" name="ISIF">     2</i>
  <i name="ENCUT">    450.00000000</i>
  <i type="string" name="LREAL">Auto</i>
  <i type="int" name="ISMEAR">     0</i>
  <i name="SIGMA">      0.10000000</i>
  <i type="logical" name="LWAVE"> F  </i>
  <i type="logical" name="LCHARG"> F  </i>
  <i type="int" name="LORBIT">    11</i>
  <i type="string" name="GGA">RP</i>
 </incar>
 <primitive_cell>
  <structure name="primitive_cell" >
   <crystal>
    <varray name="basis" >
     <v>       5.27855212       0.00000000       0.00000000 </v>
     <v>       2.63927606       4.57136023       0.00000000 </v>
     <v>       0.00000000       0.00000000      30.46487964 </v>
    </varray>
    <i name="volume">    735.12251919 </i>
    <varray name="rec_basis" >
     <v>       0.18944589      -0.10937664       0.00000000 </v>
     <v>       0.00000000       0.21875327       0.00000000 </v>
     <v>       0.00000000       0.00000000       0.03282468 </v>
    </varray>
   </crystal>
   <varray name="positions" >
    <v>       0.00000000       0.00000000       0.39389619 </v>
    <v>       0.50000000       0.00000000       0.39389619 </v>
    <v>       1.00000000       0.50000000       0.39389619 </v>
    <v>       0.50000000       0.50000000       0.39389619 </v>
    <v>       0.16666667       0.16666667       0.46463206 </v>
    <v>       0.66666667       0.16666667       0.46463206 </v>
    <v>       0.16666667       0.66666667       0.46463206 </v>
    <v>       0.66666667       0.66666667       0.46463206 </v>
    <v>       0.83333333       0.33333333       0.53536794 </v>
    <v>       0.33333333       0.33333333       0.53536794 </v>
    <v>       0.83333333       0.83333333       0.53536794 </v>
    <v>       0.33333333       0.83333333       0.53536794 </v>
    <v>       0.00000000       0.00000000       0.60610381 </v>
    <v>       0.50000000       0.00000000       0.60610381 </v>
    <v>       1.00000000       0.50000000       0.60610381 </v>
    <v>       0.50000000       0.50000000       0.60610381 </v>
   </varray>
  </structure>
  <varray name="primitive_index" >
   <v type="int" >        1 </v>
   <v type="int" >        2 </v>
   <v type="int" >        3 </v>
   <v type="int" >        4 </v>
   <v type="int" >        5 </v>
   <v type="int" >        6 </v>
   <v type="int" >        7 </v>
   <v type="int" >        8 </v>
   <v type="int" >        9 </v>
   <v type="int" >       10 </v>
   <v type="int" >       11 </v>
   <v type="int" >       12 </v>
   <v type="int" >       13 </v>
   <v type="int" >       14 </v>
   <v type="int" >       15 </v>
   <v type="int" >       16 </v>
  </varray>
 </primitive_cell>
 <kpoints>
  <generation param="Gamma">
   <v type="int" name="divisions">       4        4        1 </v>
   <v name="usershift">      0.00000000       0.00000000       0.00000000 </v>
   <v name="genvec1">      0.25000000      -0.00000000       0.00000000 </v>
   <v name="genvec2">      0.00000000       0.25000000       0.00000000 </v>
   <v name="genvec3">      0.00000000       0.00000000       1.00000000 </v>
   <v name="shift">      0.00000000       0.00000000       0.00000000 </v>
  </generation>
  <varray name="kpointlist" >
   <v>       0.00000000       0.00000000       0.00000000 </v>
   <v>       0.25000000       0.00000000       0.00000000 </v>
   <v>       0.25000000       0.25000000       0.00000000 </v>
   <v>       0.00000000       0.25000000       0.00000000 </v>
   <v>       0.50000000       0.00000000       0.00000000 </v>
   <v>       0.50000000       0.50000000       0.00000000 </v>
   <v>       0.00000000       0.50000000       0.00000000 </v>
   <v>       0.50000000       0.25000000       0.00000000 </v>
   <v>       0.25000000       0.50000000       0.00000000 </v>
   <v>      -0.25000000       0.25000000       0.00000000 </v>
  </varray>
  <varray name="weights" >
   <v>       0.06250000 </v>
   <v>       0.12500000 </v>
   <v>       0.12500000 </v>
   <v>       0.12500000 </v>
   <v>       0.06250000 </v>
   <v>       0.06250000 </v>
   <v>       0.06250000 </v>
   <v>       0.12500000 </v>
   <v>       0.12500000 </v>
   <v>       0.12500000 </v>
  </varray>
 </kpoints>
 <parameters>
  <separator name="general" >
   <i type="string" name="SYSTEM">Cu-Ag alloy CO adsorption (RPBE, matches</i>
   <i type="logical" name="LCOMPAT"> F  </i>
  </separator>
  <separator name="electronic" >
   <i type="string" name="PREC">normal</i>
   <i name="ENMAX">    450.00000000</i>
   <i name="ENAUG">    586.98000000</i>
   <i name="EDIFF">      0.00000100</i>
   <i type="int" name="IALGO">    38</i>
   <i type="int" name="IWAVPR">    11</i>
   <i type="int" name="NBANDS">   105</i>
   <i type="int" name="NBANDSLOW">    -1</i>
   <i type="int" name="NBANDSHIGH">    -1</i>
   <i name="NELECT">    176.00000000</i>
   <i type="int" name="TURBO">     0</i>
   <i type="int" name="IRESTART">     0</i>
   <i type="int" name="NREBOOT">     0</i>
   <i type="int" name="NMIN">     0</i>
   <i name="EREF">      0.00000000</i>
   <separator name="electronic smearing" >
    <i type="int" name="ISMEAR">     0</i>
    <i name="SIGMA">      0.10000000</i>
    <i name="KSPACING">      0.50000000</i>
    <i type="logical" name="KGAMMA"> T  </i>
    <i type="logical" name="KBLOWUP"> T  </i>
   </separator>
   <separator name="electronic projectors" >
    <i type="logical" name="LREAL"> T  </i>
    <v name="ROPT">     -0.00050000     -0.00050000     -0.00050000     -0.00050000     -0.00050000     -0.00050000     -0.00050000     -0.00050000</v>
    <i type="int" name="LMAXPAW">  -100</i>
    <i type="int" name="LMAXMIX">     2</i>
    <i type="logical" name="NLSPLINE"> F  </i>
   </separator>
   <separator name="electronic startup" >
    <i type="int" name="ISTART">     0</i>
    <i type="int" name="ICHARG">     2</i>
    <i type="int" name="INIWAV">     1</i>
   </separator>
   <separator name="electronic spin" >
    <i type="int" name="ISPIN">     1</i>
    <i type="logical" name="LNONCOLLINEAR"> F  </i>
    <v name="MAGMOM">      1.00000000      1.00000000      1.00000000      1.00000000      1.00000000      1.00000000      1.00000000      1.00000000      1.00000000      1.00000000      1.00000000      1.00000000      1.00000000      1.00000000      1.00000000      1.00000000</v>
    <i name="NUPDOWN">     -1.00000000</i>
    <i type="logical" name="LSORBIT"> F  </i>
    <v name="SAXIS">      0.00000000      0.00000000      1.00000000</v>
    <i type="logical" name="LSPIRAL"> F  </i>
    <v name="QSPIRAL">      0.00000000      0.00000000      0.00000000</v>
    <i type="logical" name="LZEROZ"> F  </i>
   </separator>
   <separator name="electronic exchange-correlation" >
    <i type="logical" name="LASPH"> F  </i>
   </separator>
   <separator name="electronic convergence" >
    <i type="int" name="NELM">   200</i>
    <i type="int" name="NELMDL">    -5</i>
    <i type="int" name="NELMIN">     2</i>
    <i name="ENINI">    450.00000000</i>
    <separator name="electronic convergence detail" >
     <i type="logical" name="LDIAG"> T  </i>
     <i type="logical" name="LSUBROT"> F  </i>
     <i type="logical" name="LROBUST"> F  </i>
     <i type="int" name="ISEARCH">     0</i>
     <i name="WEIMIN">      0.00100000</i>
     <i name="EBREAK">      0.00000000</i>
     <i name="DEPER">      0.30000000</i>
     <i type="int" name="NRMM">     4</i>
     <i name="TIME">      0.40000000</i>
    </separator>
   </separator>
   <separator name="electronic mixer" >
    <i name="AMIX">      0.40000000</i>
    <i name="BMIX">      1.00000000</i>
    <i name="AMIN">      0.10000000</i>
    <i name="AMIX_MAG">      1.60000000</i>
    <i name="BMIX_MAG">      1.00000000</i>
    <separator name="electronic mixer details" >
     <i type="int" name="IMIX">     4</i>
     <i type="logical" name="MIXFIRST"> F  </i>
     <i type="int" name="MAXMIX">   -45</i>
     <i name="WC">    100.00000000</i>
     <i type="int" name="INIMIX">     1</i>
     <i type="int" name="MIXPRE">     1</i>
     <i type="int" name="MREMOVE">     5</i>
    </separator>
   </separator>
   <separator name="electronic dipolcorrection" >
    <i type="logical" name="LDIPOL"> F  </i>
    <i type="logical" name="LMONO"> F  </i>
    <i type="int" name="IDIPOL">     0</i>
    <i name="EPSILON">      1.00000000</i>
    <v name="DIPOL">   -100.00000000   -100.00000000   -100.00000000</v>
    <i name="EFIELD">      0.00000000</i>
    <i type="logical" name="LVACPOTAV"> F  </i>
   </separator>
  </separator>
  <separator name="grids" >
   <i type="int" name="NGX">    28</i>
   <i type="int" name="NGY">    28</i>
   <i type="int" name="NGZ">   160</i>
   <i type="int" name="NGXF">    56</i>
   <i type="int" name="NGYF">    56</i>
   <i type="int" name="NGZF">   320</i>
   <i type="logical" name="ADDGRID"> F  </i>
  </separator>
  <separator name="ionic" >
   <i type="int" name="NSW">   200</i>
   <i type="int" name="IBRION">     2</i>
   <i type="int" name="MDALGO">     0</i>
   <i type="int" name="ISIF">     2</i>
   <i name="PSTRESS">      0.00000000</i>
   <i name="EDIFFG">     -0.03000000</i>
   <i type="int" name="NFREE">     1</i>
   <i name="POTIM">      0.50000000</i>
   <i name="SMASS">     -3.00000000</i>
   <i name="SCALEE">      1.00000000</i>
  </separator>
  <separator name="ionic md" >
   <i name="TEBEG">      0.00010000</i>
   <i name="TEEND">      0.00010000</i>
   <i type="int" name="NBLOCK">     1</i>
   <i type="int" name="KBLOCK">   200</i>
   <i type="int" name="NPACO">   256</i>
   <i name="APACO">     10.00000000</i>
  </separator>
  <separator name="symmetry" >
   <i type="int" name="ISYM">     2</i>
   <i name="SYMPREC">      0.00001000</i>
  </separator>
  <separator name="dos" >
   <i type="int" name="LORBIT">    11</i>
   <v name="RWIGS">     -1.00000000     -1.00000000     -1.00000000     -1.00000000     -1.00000000     -1.00000000     -1.00000000     -1.00000000</v>
   <i type="int" name="NEDOS">   301</i>
   <i name="EMIN">     10.00000000</i>
   <i name="EMAX">    -10.00000000</i>
   <i name="EFERMI">      0.00000000</i>
  </separator>
  <separator name="writing" >
   <i type="int" name="NWRITE">     2</i>
   <i type="logical" name="LWAVE"> F  </i>
   <i type="logical" name="LDOWNSAMPLE"> F  </i>
   <i type="logical" name="LCHARG"> F  </i>
   <i type="logical" name="LPARD"> F  </i>
   <i type="logical" name="LVTOT"> F  </i>
   <i type="logical" name="LVHAR"> F  </i>
   <i type="logical" name="LELF"> F  </i>
   <i type="logical" name="LOPTICS"> F  </i>
   <v name="STM">      0.00000000      0.00000000      0.00000000      0.00000000      0.00000000      0.00000000      0.00000000</v>
  </separator>
  <separator name="performance" >
   <i type="int" name="NPAR">     1</i>
   <i type="int" name="NSIM">     4</i>
   <i type="int" name="NBLK">    -1</i>
   <i type="logical" name="LPLANE"> T  </i>
   <i type="logical" name="LSCALAPACK"> T  </i>
   <i type="logical" name="LSCAAWARE"> F  </i>
   <i type="logical" name="LSCALU"> F  </i>
   <i type="logical" name="LASYNC"> F  </i>
   <i type="logical" name="LORBITALREAL"> F  </i>
  </separator>
  <separator name="miscellaneous" >
   <i type="int" name="IDIOT">     3</i>
   <i type="int" name="PHON_NSTRUCT">    -1</i>
   <i type="logical" name="LMUSIC"> F  </i>
   <v name="POMASS">     63.54600000    107.86800000     63.54600000    107.86800000     63.54600000    107.86800000     63.54600000    107.86800000</v>
   <v name="DARWINR">      0.00000000      0.00000000      0.00000000      0.00000000      0.00000000      0.00000000      0.00000000      0.00000000</v>
   <v name="DARWINV">      1.00000000      1.00000000      1.00000000      1.00000000      1.00000000      1.00000000      1.00000000      1.00000000</v>
   <i type="logical" name="LCORR"> T  </i>
  </separator>
  <i type="logical" name="GGA_COMPAT"> T  </i>
  <i type="logical" name="LBERRY"> F  </i>
  <i type="int" name="ICORELEVEL">     0</i>
  <i type="logical" name="LDAU"> F  </i>
  <i type="int" name="I_CONSTRAINED_M">     0</i>
  <separator name="electronic exchange-correlation" >
   <i type="string" name="GGA    ">RP</i>
   <i type="string" name="XC_C">1</i>
   <i type="int" name="VOSKOWN">     0</i>
   <i type="logical" name="LHFCALC"> F  </i>
   <i type="string" name="PRECFOCK"></i>
   <i type="logical" name="LSYMGRAD"> F  </i>
   <i type="logical" name="LHFONE"> F  </i>
   <i type="logical" name="LRHFCALC"> F  </i>
   <i type="logical" name="LTHOMAS"> F  </i>
   <i type="logical" name="LMODELHF"> F  </i>
   <i type="logical" name="LFOCKACE"> F  </i>
   <i name="ENCUT4O">     -1.00000000</i>
   <i type="int" name="EXXOEP">     0</i>
   <i type="int" name="FOURORBIT">     0</i>
   <i name="AEXX">      0.00000000</i>
   <i name="HFALPHA">      0.00000000</i>
   <i name="MCALPHA">      0.00000000</i>
   <i name="ALDAX">      1.00000000</i>
   <i name="AGGAX">      1.00000000</i>
   <i name="AMGGAX">      1.00000000</i>
   <i name="ALDAC">      1.00000000</i>
   <i name="AGGAC">      1.00000000</i>
   <i name="AMGGAC">      1.00000000</i>
   <i type="int" name="NKREDX">     1</i>
   <i type="int" name="NKREDY">     1</i>
   <i type="int" name="NKREDZ">     1</i>
   <i type="logical" name="SHIFTRED"> F  </i>
   <i type="logical" name="ODDONLY"> F  </i>
   <i type="logical" name="EVENONLY"> F  </i>
   <i type="int" name="LMAXFOCK">     0</i>
   <i type="int" name="NMAXFOCKAE">     0</i>
   <i type="logical" name="LFOCKAEDFT"> F  </i>
   <i name="HFSCREEN">      0.00000000</i>
   <i name="HFSCREENC">      0.00000000</i>
   <i type="int" name="NBANDSGWLOW">     0</i>
  </separator>
  <separator name="vdW DFT" >
   <i type="logical" name="LUSE_VDW"> F  </i>
   <i type="int" name="IVDW_NL">    -1</i>
   <i type="logical" name="LSPIN_VDW"> F  </i>
   <i name="ZAB_VDW">     -0.84910000</i>
   <i name="GAMMA_VDW">      1.39626340</i>
   <i name="ALPHA_VDW">      0.00000000</i>
   <i name="PARAM1">      0.12340000</i>
   <i name="PARAM2">      1.00000000</i>
   <i name="BPARAM">      6.30000000</i>
   <i name="CPARAM">      0.00930000</i>
  </separator>
  <separator name="model GW" >
   <i type="int" name="MODEL_GW">     0</i>
   <i name="MODEL_EPS0">     27.56709447</i>
   <i name="MODEL_ALPHA">      1.00000000</i>
  </separator>
  <separator name="linear response parameters" >
   <i type="logical" name="LEPSILON"> F  </i>
   <i type="logical" name="LRPA"> F  </i>
   <i type="logical" name="LNABLA"> F  </i>
   <i type="logical" name="LVEL"> F  </i>
   <i name="CSHIFT">      0.10000000</i>
   <i name="OMEGAMAX">     -1.00000000</i>
   <i name="DEG_THRESHOLD">      0.00200000</i>
   <i name="RTIME">     -0.10000000</i>
   <i name="WPLASMAI">      0.00000000</i>
   <v name="DFIELD">      0.00000000      0.00000000      0.00000000</v>
   <v name="WPLASMA">      0.00000000      0.00000000      0.00000000      0.00000000      0.00000000      0.00000000      0.00000000      0.00000000      0.00000000</v>
  </separator>
  <separator name="orbital magnetization" >
   <i type="logical" name="NUCIND"> F  </i>
   <v name="MAGPOS">      0.00000000      0.00000000      0.00000000</v>
   <i type="logical" name="LNICSALL"> T  </i>
   <i type="logical" name="ORBITALMAG"> F  </i>
   <i type="logical" name="LMAGBLOCH"> F  </i>
   <i type="logical" name="LCHIMAG"> F  </i>
   <i type="logical" name="LGAUGE"> T  </i>
   <i type="int" name="MAGATOM">     0</i>
   <v name="MAGDIPOL">      0.00000000      0.00000000      0.00000000</v>
   <v name="AVECCONST">      0.00000000      0.00000000      0.00000000</v>
  </separator>
  <separator name="response functions" >
   <i type="logical" name="LALL_IN_ONE"> F  </i>
   <i type="int" name="IALL_IN_ONE">    -1</i>
   <i type="int" name="NBANDS_WAVE">    -1</i>
   <i type="logical" name="LFINITE_TEMPERATURE"> F  </i>
   <i type="logical" name="LADDER"> F  </i>
   <i type="logical" name="LRPAFORCE"> F  </i>
   <i type="logical" name="LFXC"> F  </i>
   <i type="logical" name="LHARTREE"> T  </i>
   <i type="int" name="IBSE">     2</i>
   <v type="int" name="KPOINT">    -1     0     0     0</v>
   <i type="logical" name="LTCTC"> F  </i>
   <i type="logical" name="LTCTE"> F  </i>
   <i type="logical" name="LTETE"> F  </i>
   <i type="logical" name="LTRIPLET"> F  </i>
   <i type="logical" name="LFXCEPS"> F  </i>
   <i type="logical" name="LFXHEG"> F  </i>
   <i type="int" name="NATURALO">     2</i>
   <i type="logical" name="LHOLEGF"> F  </i>
   <i type="logical" name="L2ORDER"> F  </i>
   <i type="logical" name="LDMP1"> F  </i>
   <i type="logical" name="LMP2LT"> F  </i>
   <i type="logical" name="LSMP2LT"> F  </i>
   <i type="logical" name="LGWLF"> F  </i>
   <i name="ENCUTGW">     -1.60000002</i>
   <i name="ENCUTGWSOFT">     -1.60000002</i>
   <i name="ENCUTLF">     -1.00000000</i>
   <i type="logical" name="ESF_SPLINES"> F  </i>
   <i name="ESF_CONV">      0.01000000</i>
   <i type="int" name="ESF_NINTER">    15</i>
   <i type="int" name="LMAXMP2">    -1</i>
   <i name="SCISSOR">      0.00000000</i>
   <i type="int" name="NOMEGA">     0</i>
   <i type="int" name="NOMEGAR">     0</i>
   <i type="int" name="NBANDSGW">    -1</i>
   <i type="int" name="NBANDSO">    -1</i>
   <i type="int" name="NBANDSV">    -1</i>
   <i type="int" name="NELMGW">     1</i>
   <i type="int" name="NELMHF">     1</i>
   <i type="int" name="DIM">     3</i>
   <i type="int" name="IESPILON">     4</i>
   <i type="int" name="ANTIRES">     0</i>
   <i name="OMEGAMAX">    -30.00000000</i>
   <i name="OMEGAMIN">    -30.00000000</i>
   <i name="OMEGATL">   -200.00000000</i>
   <i type="int" name="OMEGAGRID">     0</i>
   <i name="CSHIFT">     -0.10000000</i>
   <i type="logical" name="LSELFENERGY"> F  </i>
   <i type="logical" name="LSPECTRAL"> F  </i>
   <i type="logical" name="LSPECTRALGW"> F  </i>
   <i type="logical" name="LSINGLES"> F  </i>
   <i type="logical" name="LFERMIGW"> F  </i>
   <i type="logical" name="ODDONLYGW"> F  </i>
   <i type="logical" name="EVENONLYGW"> F  </i>
   <i type="int" name="NKREDLFX">     1</i>
   <i type="int" name="NKREDLFY">     1</i>
   <i type="int" name="NKREDLFZ">     1</i>
   <i type="int" name="MAXMEM">  2800</i>
   <i type="int" name="TELESCOPE">     0</i>
   <i type="int" name="NTAUPAR">    -1</i>
   <i type="int" name="NOMEGAPAR">    -1</i>
   <i name="DAMP_NEWTON">      0.80000001</i>
   <i name="LAMBDA">      1.00000000</i>
  </separator>
  <separator name="External order field" >
   <i name="OFIELD_KAPPA">      0.00000000</i>
   <v name="OFIELD_K">      0.00000000      0.00000000      0.00000000</v>
   <i name="OFIELD_Q6_NEAR">      0.00000000</i>
   <i name="OFIELD_Q6_FAR">      0.00000000</i>
   <i name="OFIELD_A">      0.00000000</i>
  </separator>
  <separator name="optional k-points parameters" >
   <i type="int" name="KPOINTS_OPT_MODE">     1</i>
   <i type="logical" name="LKPOINTS_OPT"> F  </i>
  </separator>
 </parameters>
 <atominfo>
  <atoms>      16 </atoms>
  <types>       8 </types>
  <array name="atoms" >
   <dimension dim="1">ion</dimension>
   <field type="string">element</field>
   <field type="int">atomtype</field>
   <set>
    <rc><c>Cu</c><c>   1</c></rc>
    <rc><c>Cu</c><c>   1</c></rc>
    <rc><c>Cu</c><c>   1</c></rc>
    <rc><c>Ag</c><c>   2</c></rc>
    <rc><c>Cu</c><c>   3</c></rc>
    <rc><c>Cu</c><c>   3</c></rc>
    <rc><c>Cu</c><c>   3</c></rc>
    <rc><c>Ag</c><c>   4</c></rc>
    <rc><c>Cu</c><c>   5</c></rc>
    <rc><c>Cu</c><c>   5</c></rc>
    <rc><c>Cu</c><c>   5</c></rc>
    <rc><c>Ag</c><c>   6</c></rc>
    <rc><c>Cu</c><c>   7</c></rc>
    <rc><c>Cu</c><c>   7</c></rc>
    <rc><c>Cu</c><c>   7</c></rc>
    <rc><c>Ag</c><c>   8</c></rc>
   </set>
  </array>
  <array name="atomtypes" >
   <dimension dim="1">type</dimension>
   <field type="int">atomspertype</field>
   <field type="string">element</field>
   <field>mass</field>
   <field>valence</field>
   <field type="string">pseudopotential</field>
   <set>
    <rc><c>   3</c><c>Cu</c><c>     63.54600000</c><c>     11.00000000</c><c>  PAW_PBE Cu 22Jun2005                  </c></rc>
    <rc><c>   1</c><c>Ag</c><c>    107.86800000</c><c>     11.00000000</c><c>  PAW_PBE Ag 02Apr2005                  </c></rc>
    <rc><c>   3</c><c>Cu</c><c>     63.54600000</c><c>     11.00000000</c><c>  PAW_PBE Cu 22Jun2005                  </c></rc>
    <rc><c>   1</c><c>Ag</c><c>    107.86800000</c><c>     11.00000000</c><c>  PAW_PBE Ag 02Apr2005                  </c></rc>
    <rc><c>   3</c><c>Cu</c><c>     63.54600000</c><c>     11.00000000</c><c>  PAW_PBE Cu 22Jun2005                  </c></rc>
    <rc><c>   1</c><c>Ag</c><c>    107.86800000</c><c>     11.00000000</c><c>  PAW_PBE Ag 02Apr2005                  </c></rc>
    <rc><c>   3</c><c>Cu</c><c>     63.54600000</c><c>     11.00000000</c><c>  PAW_PBE Cu 22Jun2005                  </c></rc>
    <rc><c>   1</c><c>Ag</c><c>    107.86800000</c><c>     11.00000000</c><c>  PAW_PBE Ag 02Apr2005                  </c></rc>
   </set>
  </array>
 </atominfo>
 <structure name="initialpos" >
  <crystal>
   <varray name="basis" >
    <v>       5.27855212       0.00000000       0.00000000 </v>
    <v>       2.63927606       4.57136023       0.00000000 </v>
    <v>       0.00000000       0.00000000      30.46487964 </v>
   </varray>
   <i name="volume">    735.12251919 </i>
   <varray name="rec_basis" >
    <v>       0.18944589      -0.10937664       0.00000000 </v>
    <v>       0.00000000       0.21875327       0.00000000 </v>
    <v>       0.00000000       0.00000000       0.03282468 </v>
   </varray>
  </crystal>
  <varray name="positions" >
   <v>       0.00000000       0.00000000       0.39389619 </v>
   <v>       0.50000000       0.00000000       0.39389619 </v>
   <v>       0.00000000       0.50000000       0.39389619 </v>
   <v>       0.50000000       0.50000000       0.39389619 </v>
   <v>       0.16666667       0.16666667       0.46463206 </v>
   <v>       0.66666667       0.16666667       0.46463206 </v>
   <v>       0.16666667       0.66666667       0.46463206 </v>
   <v>       0.66666667       0.66666667       0.46463206 </v>
   <v>       0.83333333       0.33333333       0.53536794 </v>
   <v>       0.33333333       0.33333333       0.53536794 </v>
   <v>       0.83333333       0.83333333       0.53536794 </v>
   <v>       0.33333333       0.83333333       0.53536794 </v>
   <v>       0.00000000       0.00000000       0.60610381 </v>
   <v>       0.50000000       0.00000000       0.60610381 </v>
   <v>       0.00000000       0.50000000       0.60610381 </v>
   <v>       0.50000000       0.50000000       0.60610381 </v>
  </varray>
  <varray name="selective"  type="logical" >
   <v type="logical" >  F  F  F </v>
   <v type="logical" >  F  F  F </v>
   <v type="logical" >  F  F  F </v>
   <v type="logical" >  F  F  F </v>
   <v type="logical" >  F  F  F </v>
   <v type="logical" >  F  F  F </v>
   <v type="logical" >  F  F  F </v>
   <v type="logical" >  F  F  F </v>
   <v type="logical" >  T  T  T </v>
   <v type="logical" >  T  T  T </v>
   <v type="logical" >  T  T  T </v>
   <v type="logical" >  T  T  T </v>
   <v type="logical" >  T  T  T </v>
   <v type="logical" >  T  T  T </v>
   <v type="logical" >  T  T  T </v>
   <v type="logical" >  T  T  T </v>
  </varray>
  <nose>
   <v>      -3.00000000       0.00000000       0.00010000       0.00010000 </v>
  </nose>
 </structure>
 <calculation>
  <scstep>
   <time name="dav">    1.44    1.45</time>
   <time name="total">    1.48    1.48</time>
   <energy>
    <i name="alphaZ">    265.06055036 </i>
    <i name="ewald"> 138247.20489785 </i>
    <i name="hartreedc">-158223.83321786 </i>
    <i name="XCdc">    494.94955350 </i>
    <i name="pawpsdc">  18765.07540989 </i>
    <i name="pawaedc"> -19834.60271566 </i>
    <i name="eentropy">     -0.03058615 </i>
    <i name="bandstr">   1053.83302304 </i>
    <i name="atom">  20826.04470388 </i>
    <i name="e_fr_energy">   1593.70161886 </i>
    <i name="e_wo_entrp">   1593.73220501 </i>
    <i name="e_0_energy">   1593.71691194 </i>
   </energy>
  </scstep>
  <scstep>
   <time name="dav">    1.35    1.35</time>
   <time name="total">    1.35    1.35</time>
   <energy>
    <i name="e_fr_energy">    160.05097926 </i>
    <i name="e_wo_entrp">    160.08164636 </i>
    <i name="e_0_energy">    160.06631281 </i>
   </energy>
  </scstep>
  <scstep>
   <time name="dav">    1.44    1.45</time>
   <time name="total">    1.44    1.45</time>
   <energy>
    <i name="e_fr_energy">    -37.62284771 </i>
    <i name="e_wo_entrp">    -37.55305169 </i>
    <i name="e_0_energy">    -37.58794970 </i>
   </energy>
  </scstep>
  <scstep>
   <time name="dav">    1.68    1.68</time>
   <time name="total">    1.68    1.68</time>
   <energy>
    <i name="e_fr_energy">    -51.38539350 </i>
    <i name="e_wo_entrp">    -51.31384784 </i>
    <i name="e_0_energy">    -51.34962067 </i>
   </energy>
  </scstep>
  <scstep>
   <time name="dav">    1.58    1.59</time>
   <time name="total">    1.72    1.72</time>
   <energy>
    <i name="e_fr_energy">    -51.67896016 </i>
    <i name="e_wo_entrp">    -51.60715854 </i>
    <i name="e_0_energy">    -51.64305935 </i>
   </energy>
  </scstep>
  <scstep>
   <time name="dav">    1.54    1.55</time>
   <time name="total">    1.70    1.70</time>
   <energy>
    <i name="e_fr_energy">    -48.44862770 </i>
    <i name="e_wo_entrp">    -48.41418911 </i>
    <i name="e_0_energy">    -48.43140840 </i>
   </energy>
  </scstep>
  <scstep>
   <time name="dav">    1.51    1.52</time>
   <time name="total">    1.66    1.66</time>
   <energy>
    <i name="e_fr_energy">    -42.88268442 </i>
    <i name="e_wo_entrp">    -42.81531442 </i>
    <i name="e_0_energy">    -42.84899942 </i>
   </energy>
  </scstep>
  <scstep>
   <time name="dav">    1.88    1.89</time>
   <time name="total">    2.03    2.04</time>
   <energy>
    <i name="e_fr_energy">    -43.35939132 </i>
    <i name="e_wo_entrp">    -43.29195004 </i>
    <i name="e_0_energy">    -43.32567068 </i>
   </energy>
  </scstep>
  <scstep>
   <time name="dav">    1.57    1.58</time>
   <time name="total">    1.72    1.73</time>
   <energy>
    <i name="e_fr_energy">    -43.23061476 </i>
    <i name="e_wo_entrp">    -43.18793984 </i>
    <i name="e_0_energy">    -43.20927730 </i>
   </energy>
  </scstep>
  <scstep>
   <time name="dav">    1.92    1.93</time>
   <time name="total">    2.08    2.08</time>
   <energy>
    <i name="e_fr_energy">    -43.15580651 </i>
    <i name="e_wo_entrp">    -43.09557848 </i>
    <i name="e_0_energy">    -43.12569249 </i>
   </energy>
  </scstep>
  <scstep>
   <time name="dav">    1.77    1.77</time>
   <time name="total">    1.91    1.92</time>
   <energy>
    <i name="e_fr_energy">    -43.05179220 </i>
    <i name="e_wo_entrp">    -42.98619022 </i>
    <i name="e_0_energy">    -43.01899121 </i>
   </energy>
  </scstep>
  <scstep>
   <time name="dav">    1.89    1.89</time>
   <time name="total">    2.04    2.04</time>
   <energy>
    <i name="e_fr_energy">    -43.03276842 </i>
    <i name="e_wo_entrp">    -42.96441023 </i>
    <i name="e_0_energy">    -42.99858932 </i>
   </energy>
  </scstep>
  <scstep>
   <time name="dav">    1.71    1.72</time>
   <time name="total">    1.86    1.87</time>
   <energy>
    <i name="e_fr_energy">    -43.03411554 </i>
    <i name="e_wo_entrp">    -42.96527925 </i>
    <i name="e_0_energy">    -42.99969740 </i>
   </energy>
  </scstep>
  <scstep>
   <time name="dav">    1.47    1.47</time>
   <time name="total">    1.61    1.62</time>
   <energy>
    <i name="e_fr_energy">    -43.03427993 </i>
    <i name="e_wo_entrp">    -42.96519582 </i>
    <i name="e_0_energy">    -42.99973788 </i>
   </energy>
  </scstep>
  <scstep>
   <time name="dav">    1.47    1.47</time>
   <time name="total">    1.62    1.62</time>
   <energy>
    <i name="e_fr_energy">    -43.03410941 </i>
    <i name="e_wo_entrp">    -42.96514385 </i>
    <i name="e_0_energy">    -42.99962663 </i>
   </energy>
  </scstep>
  <scstep>
   <time name="dav">    1.56    1.57</time>
   <time name="total">    1.71    1.72</time>
   <energy>
    <i name="e_fr_energy">    -43.03362838 </i>
    <i name="e_wo_entrp">    -42.96477234 </i>
    <i name="e_0_energy">    -42.99920036 </i>
   </energy>
  </scstep>
  <scstep>
   <time name="dav">    1.77    1.77</time>
   <time name="total">    1.92    1.93</time>
   <energy>
    <i name="e_fr_energy">    -43.03366287 </i>
    <i name="e_wo_entrp">    -42.96479006 </i>
    <i name="e_0_energy">    -42.99922647 </i>
   </energy>
  </scstep>
  <scstep>
   <time name="dav">    1.48    1.48</time>
   <time name="total">    1.63    1.63</time>
   <energy>
    <i name="e_fr_energy">    -43.03371684 </i>
    <i name="e_wo_entrp">    -42.96478309 </i>
    <i name="e_0_energy">    -42.99924996 </i>
   </energy>
  </scstep>
  <scstep>
   <time name="dav">    1.71    1.71</time>
   <time name="total">    1.86    1.86</time>
   <energy>
    <i name="e_fr_energy">    -43.03389774 </i>
    <i name="e_wo_entrp">    -42.96494725 </i>
    <i name="e_0_energy">    -42.99942249 </i>
   </energy>
  </scstep>
  <scstep>
   <time name="dav">    1.56    1.56</time>
   <time name="total">    1.71    1.71</time>
   <energy>
    <i name="e_fr_energy">    -43.03408421 </i>
    <i name="e_wo_entrp">    -42.96509999 </i>
    <i name="e_0_energy">    -42.99959210 </i>
   </energy>
  </scstep>
  <scstep>
   <time name="dav">    1.58    1.58</time>
   <time name="total">    1.73    1.73</time>
   <energy>
    <i name="e_fr_energy">    -43.03417509 </i>
    <i name="e_wo_entrp">    -42.96523152 </i>
    <i name="e_0_energy">    -42.99970331 </i>
   </energy>
  </scstep>
  <scstep>
   <time name="dav">    1.43    1.43</time>
   <time name="total">    1.58    1.59</time>
   <energy>
    <i name="e_fr_energy">    -43.03423775 </i>
    <i name="e_wo_entrp">    -42.96528253 </i>
    <i name="e_0_energy">    -42.99976014 </i>
   </energy>
  </scstep>
  <scstep>
   <time name="dav">    1.52    1.52</time>
   <time name="total">    1.67    1.67</time>
   <energy>
    <i name="e_fr_energy">    -43.03433481 </i>
    <i name="e_wo_entrp">    -42.96536654 </i>
    <i name="e_0_energy">    -42.99985068 </i>
   </energy>
  </scstep>
  <scstep>
   <time name="dav">    1.11    1.12</time>
   <time name="total">    1.26    1.27</time>
   <energy>
    <i name="e_fr_energy">    -43.03438615 </i>
    <i name="e_wo_entrp">    -42.96541110 </i>
    <i name="e_0_energy">    -42.99989863 </i>
   </energy>
  </scstep>
  <scstep>
   <time name="dav">    1.04    1.04</time>
   <time name="total">    1.19    1.20</time>
   <energy>
    <i name="e_fr_energy">    -43.03441546 </i>
    <i name="e_wo_entrp">    -42.96544029 </i>
    <i name="e_0_energy">    -42.99992788 </i>
   </energy>
  </scstep>
  <scstep>
   <time name="dav">    0.99    0.99</time>
   <time name="total">    1.14    1.14</time>
   <energy>
    <i name="e_fr_energy">    -43.03444784 </i>
    <i name="e_wo_entrp">    -42.96548137 </i>
    <i name="e_0_energy">    -42.99996460 </i>
   </energy>
  </scstep>
  <scstep>
   <time name="dav">    0.97    0.97</time>
   <time name="total">    1.13    1.13</time>
   <energy>
    <i name="e_fr_energy">    -43.03446287 </i>
    <i name="e_wo_entrp">    -42.96549296 </i>
    <i name="e_0_energy">    -42.99997792 </i>
   </energy>
  </scstep>
  <scstep>
   <time name="dav">    0.93    0.93</time>
   <time name="total">    1.08    1.09</time>
   <energy>
    <i name="e_fr_energy">    -43.03447993 </i>
    <i name="e_wo_entrp">    -42.96551273 </i>
    <i name="e_0_energy">    -42.99999633 </i>
   </energy>
  </scstep>
  <scstep>
   <time name="dav">    0.96    0.96</time>
   <time name="total">    1.11    1.11</time>
   <energy>
    <i name="e_fr_energy">    -43.03449222 </i>
    <i name="e_wo_entrp">    -42.96552353 </i>
    <i name="e_0_energy">    -43.00000787 </i>
   </energy>
  </scstep>
  <scstep>
   <time name="dav">    0.96    0.96</time>
   <time name="total">    1.11    1.12</time>
   <energy>
    <i name="e_fr_energy">    -43.03449895 </i>
    <i name="e_wo_entrp">    -42.96552981 </i>
    <i name="e_0_energy">    -43.00001438 </i>
   </energy>
  </scstep>
  <scstep>
   <time name="dav">    0.97    0.97</time>
   <time name="total">    1.13    1.14</time>
   <energy>
    <i name="e_fr_energy">    -43.03450064 </i>
    <i name="e_wo_entrp">    -42.96553099 </i>
    <i name="e_0_energy">    -43.00001581 </i>
   </energy>
  </scstep>
  <scstep>
   <time name="dav">    0.94    0.94</time>
   <time name="total">    1.10    1.10</time>
   <energy>
    <i name="e_fr_energy">    -43.03450288 </i>
    <i name="e_wo_entrp">    -42.96553303 </i>
    <i name="e_0_energy">    -43.00001795 </i>
   </energy>
  </scstep>
  <scstep>
   <time name="dav">    0.93    0.93</time>
   <time name="total">    0.95    0.96</time>
   <energy>
    <i name="alphaZ">    265.06055036 </i>
    <i name="ewald"> 138247.20489785 </i>
    <i name="hartreedc">-158032.91615059 </i>
    <i name="XCdc">    482.70308136 </i>
    <i name="pawpsdc">  20207.51503905 </i>
    <i name="pawaedc"> -21314.28569940 </i>
    <i name="eentropy">     -0.06896984 </i>
    <i name="bandstr">   -724.29195631 </i>
    <i name="atom">  20826.04470388 </i>
    <i name="e_fr_energy">    -43.03450364 </i>
    <i name="e_wo_entrp">    -42.96553379 </i>
    <i name="e_0_energy">    -43.00001871 </i>
   </energy>
  </scstep>
  <structure>
   <crystal>
    <varray name="basis" >
     <v>       5.27855212       0.00000000       0.00000000 </v>
     <v>       2.63927606       4.57136023       0.00000000 </v>
     <v>       0.00000000       0.00000000      30.46487964 </v>
    </varray>
    <i name="volume">    735.12251919 </i>
    <varray name="rec_basis" >
     <v>       0.18944589      -0.10937664       0.00000000 </v>
     <v>       0.00000000       0.21875327       0.00000000 </v>
     <v>       0.00000000       0.00000000       0.03282468 </v>
    </varray>
   </crystal>
   <varray name="positions" >
    <v>       0.00000000       0.00000000       0.39389619 </v>
    <v>       0.50000000       0.00000000       0.39389619 </v>
    <v>       0.00000000       0.50000000       0.39389619 </v>
    <v>       0.50000000       0.50000000       0.39389619 </v>
    <v>       0.16666667       0.16666667       0.46463206 </v>
    <v>       0.66666667       0.16666667       0.46463206 </v>
    <v>       0.16666667       0.66666667       0.46463206 </v>
    <v>       0.66666667       0.66666667       0.46463206 </v>
    <v>       0.83333333       0.33333333       0.53536794 </v>
    <v>       0.33333333       0.33333333       0.53536794 </v>
    <v>       0.83333333       0.83333333       0.53536794 </v>
    <v>       0.33333333       0.83333333       0.53536794 </v>
    <v>       0.00000000       0.00000000       0.60610381 </v>
    <v>       0.50000000       0.00000000       0.60610381 </v>
    <v>       0.00000000       0.50000000       0.60610381 </v>
    <v>       0.50000000       0.50000000       0.60610381 </v>
   </varray>
  </structure>
  <varray name="forces" >
   <v>       0.00439227      -0.00514509       0.15054114 </v>
   <v>      -0.00641166       0.24370099      -0.17410725 </v>
   <v>       0.21427258      -0.12299621      -0.16950704 </v>
   <v>      -0.35387442      -0.19784591      -1.40152693 </v>
   <v>       0.00383738       0.24025845      -0.22601550 </v>
   <v>      -0.00027506      -0.23297989       0.43400837 </v>
   <v>      -0.40841916      -0.00568835       0.09206658 </v>
   <v>       0.69516860      -0.00524885       0.08123605 </v>
   <v>       0.19929275      -0.35650821      -0.09211642 </v>
   <v>      -0.20158943      -0.11668294      -0.43393243 </v>
   <v>       0.20615839       0.12347469       0.22602411 </v>
   <v>      -0.35212960       0.59941282      -0.08123108 </v>
   <v>      -0.21364569       0.12408433       0.16950933 </v>
   <v>       0.21427160       0.11630175       0.17409205 </v>
   <v>      -0.00664786       0.00124390      -0.15056590 </v>
   <v>       0.00559931      -0.40538150       1.40152492 </v>
  </varray>
  <varray name="stress" >
   <v>      16.85181669      -0.09959225      -0.03483303 </v>
   <v>      -0.09959241      16.72185669       0.02041064 </v>
   <v>      -0.03483296       0.02041068      18.93704587 </v>
  </varray>
  <energy>
   <i name="e_fr_energy">    -43.03450364 </i>
   <i name="e_wo_entrp">    -42.96553379 </i>
   <i name="e_0_energy">    -43.00001871 </i>
  </energy>
  <time name="totalsc">   53.22   53.35</time>
 </calculation>
 <calculation>
  <scstep>
   <time name="dav">    1.31    1.31</time>
   <time name="total">    1.46    1.46</time>
   <energy>
    <i name="alphaZ">    265.06055036 </i>
    <i name="ewald"> 137972.41756039 </i>
    <i name="hartreedc">-157759.30561001 </i>
    <i name="XCdc">    482.56916344 </i>
    <i name="pawpsdc">  20207.51877176 </i>
    <i name="pawaedc"> -21314.28965222 </i>
    <i name="eentropy">     -0.06762010 </i>
    <i name="bandstr">   -722.98105799 </i>
    <i name="atom">  20826.04470388 </i>
    <i name="e_fr_energy">    -43.03319050 </i>
    <i name="e_wo_entrp">    -42.96557040 </i>
    <i name="e_0_energy">    -42.99938045 </i>
   </energy>
  </scstep>
  <scstep>
   <time name="dav">    1.87    1.87</time>
   <time name="total">    2.01    2.02</time>
   <energy>
    <i name="e_fr_energy">    -43.15735640 </i>
    <i name="e_wo_entrp">    -43.09094153 </i>
    <i name="e_0_energy">    -43.12414897 </i>
   </energy>
  </scstep>
  <scstep>
   <time name="dav">    1.55    1.56</time>
   <time name="total">    1.70    1.70</time>
   <energy>
    <i name="e_fr_energy">    -43.15136695 </i>
    <i name="e_wo_entrp">    -43.08400433 </i>
    <i name="e_0_energy">    -43.11768564 </i>
   </energy>
  </scstep>
  <scstep>
   <time name="dav">    1.79    1.79</time>
   <time name="total">    1.94    1.94</time>
   <energy>
    <i name="e_fr_energy">    -43.15159380 </i>
    <i name="e_wo_entrp">    -43.08399831 </i>
    <i name="e_0_energy">    -43.11779605 </i>
   </energy>
  </scstep>
  <scstep>
   <time name="dav">    1.64    1.65</time>
   <time name="total">    1.79    1.79</time>
   <energy>
    <i name="e_fr_energy">    -43.15061327 </i>
    <i name="e_wo_entrp">    -43.08275290 </i>
    <i name="e_0_energy">    -43.11668308 </i>
   </energy>
  </scstep>
  <scstep>
   <time name="dav">    1.70    1.71</time>
   <time name="total">    1.85    1.85</time>
   <energy>
    <i name="e_fr_energy">    -43.14880838 </i>
    <i name="e_wo_entrp">    -43.08104097 </i>
    <i name="e_0_energy">    -43.11492467 </i>
   </energy>
  </scstep>
  <scstep>
   <time name="dav">    1.76    1.76</time>
   <time name="total">    1.91    1.91</time>
   <energy>
    <i name="e_fr_energy">    -43.14900779 </i>
    <i name="e_wo_entrp">    -43.08115018 </i>
    <i name="e_0_energy">    -43.11507899 </i>
   </energy>
  </scstep>
  <scstep>
   <time name="dav">    1.47    1.47</time>
   <time name="total">    1.62    1.62</time>
   <energy>
    <i name="e_fr_energy">    -43.14898179 </i>
    <i name="e_wo_entrp">    -43.08117982 </i>
    <i name="e_0_energy">    -43.11508081 </i>
   </energy>
  </scstep>
  <scstep>
   <time name="dav">    1.54    1.55</time>
   <time name="total">    1.69    1.69</time>
   <energy>
    <i name="e_fr_energy">    -43.14896288 </i>
    <i name="e_wo_entrp">    -43.08117045 </i>
    <i name="e_0_energy">    -43.11506666 </i>
   </energy>
  </scstep>
  <scstep>
   <time name="dav">    1.59    1.59</time>
   <time name="total">    1.74    1.74</time>
   <energy>
    <i name="e_fr_energy">    -43.14894523 </i>
    <i name="e_wo_entrp">    -43.08121568 </i>
    <i name="e_0_energy">    -43.11508045 </i>
   </energy>
  </scstep>
  <scstep>
   <time name="dav">    1.66    1.66</time>
   <time name="total">    1.81    1.81</time>
   <energy>
    <i name="e_fr_energy">    -43.14894618 </i>
    <i name="e_wo_entrp">    -43.08117754 </i>
    <i name="e_0_energy">    -43.11506186 </i>
   </energy>
  </scstep>
  <scstep>
   <time name="dav">    1.36    1.36</time>
   <time name="total">    1.50    1.51</time>
   <energy>
    <i name="e_fr_energy">    -43.14894540 </i>
    <i name="e_wo_entrp">    -43.08119468 </i>
    <i name="e_0_energy">    -43.11507004 </i>
   </energy>
  </scstep>
  <scstep>
   <time name="dav">    0.97    0.97</time>
   <time name="total">    0.99    0.99</time>
   <energy>
    <i name="alphaZ">    265.06055036 </i>
    <i name="ewald"> 137972.41756039 </i>
    <i name="hartreedc">-157759.15306130 </i>
    <i name="XCdc">    482.57230091 </i>
    <i name="pawpsdc">  20185.71395878 </i>
    <i name="pawaedc"> -21292.18953445 </i>
    <i name="eentropy">     -0.06775422 </i>
    <i name="bandstr">   -723.54766994 </i>
    <i name="atom">  20826.04470388 </i>
    <i name="e_fr_energy">    -43.14894559 </i>
    <i name="e_wo_entrp">    -43.08119137 </i>
    <i name="e_0_energy">    -43.11506848 </i>
   </energy>
  </scstep>
  <structure>
   <crystal>
    <varray name="basis" >
     <v>       5.27855212       0.00000000       0.00000000 </v>
     <v>       2.63927606       4.57136023       0.00000000 </v>
     <v>       0.00000000       0.00000000      30.46487964 </v>
    </varray>
    <i name="volume">    735.12251919 </i>
    <varray name="rec_basis" >
     <v>       0.18944589      -0.10937664       0.00000000 </v>
     <v>       0.00000000       0.21875327       0.00000000 </v>
     <v>       0.00000000       0.00000000       0.03282468 </v>
    </varray>
   </crystal>
   <varray name="positions" >
    <v>       0.00000000       0.00000000       0.39389619 </v>
    <v>       0.50000000       0.00000000       0.39389619 </v>
    <v>       0.00000000       0.50000000       0.39389619 </v>
    <v>       0.50000000       0.50000000       0.39389619 </v>
    <v>       0.16666667       0.16666667       0.46463206 </v>
    <v>       0.66666667       0.16666667       0.46463206 </v>
    <v>       0.16666667       0.66666667       0.46463206 </v>
    <v>       0.66666667       0.66666667       0.46463206 </v>
    <v>       0.83703590       0.32957102       0.53522207 </v>
    <v>       0.33210662       0.33210195       0.53468078 </v>
    <v>       0.83456596       0.83463639       0.53572586 </v>
    <v>       0.32695222       0.83965908       0.53523930 </v>
    <v>       0.99739267       0.00130949       0.60637224 </v>
    <v>       0.50134463       0.00122736       0.60637949 </v>
    <v>       0.99993268       0.50001313       0.60586538 </v>
    <v>       0.50219022       0.49572191       0.60832320 </v>
   </varray>
  </structure>
  <varray name="forces" >
   <v>       0.00629718      -0.00455584       0.15297448 </v>
   <v>      -0.00639174       0.24282925      -0.17263363 </v>
   <v>       0.21355244      -0.12050041      -0.16523707 </v>
   <v>      -0.35148035      -0.19543711      -1.40499178 </v>
   <v>       0.00189972       0.25477334      -0.31314080 </v>
   <v>       0.00434307      -0.23432414       0.42197635 </v>
   <v>      -0.40821154      -0.00210498       0.07781047 </v>
   <v>       0.67990257       0.00877909       0.19322906 </v>
   <v>      -0.04742088       0.00243399       0.02101656 </v>
   <v>       0.01215931       0.05380362      -0.24185713 </v>
   <v>       0.01149212       0.06093316       0.16333182 </v>
   <v>      -0.10638700      -0.01112659       0.26167856 </v>
   <v>      -0.09373223       0.00243236       0.18177574 </v>
   <v>       0.08404919      -0.00881390       0.11998604 </v>
   <v>      -0.00050832       0.00370490      -0.14672532 </v>
   <v>       0.00043646      -0.05282674       0.85080663 </v>
  </varray>
  <varray name="stress" >
   <v>      16.30495043      -0.19930445      -0.03402412 </v>
   <v>      -0.19930457      15.91780264       0.42196860 </v>
   <v>      -0.03402422       0.42196809      16.40067202 </v>
  </varray>
  <energy>
   <i name="e_fr_energy">    -43.14894559 </i>
   <i name="e_wo_entrp">    -43.08119137 </i>
   <i name="e_0_energy">    -43.11506848 </i>
  </energy>
  <time name="totalsc">   24.28   24.35</time>
 </calculation>
 <calculation>
  <scstep>
   <time name="dav">    1.31    1.31</time>
   <time name="total">    1.46    1.46</time>
   <energy>
    <i name="alphaZ">    265.06055036 </i>
    <i name="ewald"> 137700.09318488 </i>
    <i name="hartreedc">-157487.64688351 </i>
    <i name="XCdc">    482.46686903 </i>
    <i name="pawpsdc">  20185.71676100 </i>
    <i name="pawaedc"> -21292.19309548 </i>
    <i name="eentropy">     -0.06606110 </i>
    <i name="bandstr">   -722.54592540 </i>
    <i name="atom">  20826.04470388 </i>
    <i name="e_fr_energy">    -43.06989636 </i>
    <i name="e_wo_entrp">    -43.00383525 </i>
    <i name="e_0_energy">    -43.03686580 </i>
   </energy>
  </scstep>
  <scstep>
   <time name="dav">    1.88    1.88</time>
   <time name="total">    2.03    2.03</time>
   <energy>
    <i name="e_fr_energy">    -43.19016560 </i>
    <i name="e_wo_entrp">    -43.12525468 </i>
    <i name="e_0_energy">    -43.15771014 </i>
   </energy>
  </scstep>
  <scstep>
   <time name="dav">    1.56    1.56</time>
   <time name="total">    1.71    1.71</time>
   <energy>
    <i name="e_fr_energy">    -43.18441143 </i>
    <i name="e_wo_entrp">    -43.11858807 </i>
    <i name="e_0_energy">    -43.15149975 </i>
   </energy>
  </scstep>
  <scstep>
   <time name="dav">    1.80    1.80</time>
   <time name="total">    1.94    1.95</time>
   <energy>
    <i name="e_fr_energy">    -43.18415776 </i>
    <i name="e_wo_entrp">    -43.11816595 </i>
    <i name="e_0_energy">    -43.15116186 </i>
   </energy>
  </scstep>
  <scstep>
   <time name="dav">    1.68    1.68</time>
   <time name="total">    1.82    1.83</time>
   <energy>
    <i name="e_fr_energy">    -43.18331136 </i>
    <i name="e_wo_entrp">    -43.11709014 </i>
    <i name="e_0_energy">    -43.15020075 </i>
   </energy>
  </scstep>
  <scstep>
   <time name="dav">    1.68    1.68</time>
   <time name="total">    1.82    1.83</time>
   <energy>
    <i name="e_fr_energy">    -43.18200554 </i>
    <i name="e_wo_entrp">    -43.11580076 </i>
    <i name="e_0_energy">    -43.14890315 </i>
   </energy>
  </scstep>
  <scstep>
   <time name="dav">    1.78    1.79</time>
   <time name="total">    1.93    1.94</time>
   <energy>
    <i name="e_fr_energy">    -43.18209337 </i>
    <i name="e_wo_entrp">    -43.11579757 </i>
    <i name="e_0_energy">    -43.14894547 </i>
   </energy>
  </scstep>
  <scstep>
   <time name="dav">    1.46    1.47</time>
   <time name="total">    1.61    1.62</time>
   <energy>
    <i name="e_fr_energy">    -43.18209613 </i>
    <i name="e_wo_entrp">    -43.11580842 </i>
    <i name="e_0_energy">    -43.14895228 </i>
   </energy>
  </scstep>
  <scstep>
   <time name="dav">    1.55    1.56</time>
   <time name="total">    1.70    1.70</time>
   <energy>
    <i name="e_fr_energy">    -43.18208607 </i>
    <i name="e_wo_entrp">    -43.11582880 </i>
    <i name="e_0_energy">    -43.14895743 </i>
   </energy>
  </scstep>
  <scstep>
   <time name="dav">    1.56    1.56</time>
   <time name="total">    1.70    1.71</time>
   <energy>
    <i name="e_fr_energy">    -43.18206846 </i>
    <i name="e_wo_entrp">    -43.11586056 </i>
    <i name="e_0_energy">    -43.14896451 </i>
   </energy>
  </scstep>
  <scstep>
   <time name="dav">    1.63    1.63</time>
   <time name="total">    1.78    1.78</time>
   <energy>
    <i name="e_fr_energy">    -43.18206902 </i>
    <i name="e_wo_entrp">    -43.11583158 </i>
    <i name="e_0_energy">    -43.14895030 </i>
   </energy>
  </scstep>
  <scstep>
   <time name="dav">    1.34    1.35</time>
   <time name="total">    1.49    1.50</time>
   <energy>
    <i name="e_fr_energy">    -43.18206881 </i>
    <i name="e_wo_entrp">    -43.11584831 </i>
    <i name="e_0_energy">    -43.14895856 </i>
   </energy>
  </scstep>
  <scstep>
   <time name="dav">    0.96    0.96</time>
   <time name="total">    0.98    0.99</time>
   <energy>
    <i name="alphaZ">    265.06055036 </i>
    <i name="ewald"> 137700.09318488 </i>
    <i name="hartreedc">-157487.81009393 </i>
    <i name="XCdc">    482.47327912 </i>
    <i name="pawpsdc">  20172.13257616 </i>
    <i name="pawaedc"> -21278.41743418 </i>
    <i name="eentropy">     -0.06622298 </i>
    <i name="bandstr">   -722.69261238 </i>
    <i name="atom">  20826.04470388 </i>
    <i name="e_fr_energy">    -43.18206908 </i>
    <i name="e_wo_entrp">    -43.11584609 </i>
    <i name="e_0_energy">    -43.14895759 </i>
   </energy>
  </scstep>
  <structure>
   <crystal>
    <varray name="basis" >
     <v>       5.27855212       0.00000000       0.00000000 </v>
     <v>       2.63927606       4.57136023       0.00000000 </v>
     <v>       0.00000000       0.00000000      30.46487964 </v>
    </varray>
    <i name="volume">    735.12251919 </i>
    <varray name="rec_basis" >
     <v>       0.18944589      -0.10937664       0.00000000 </v>
     <v>       0.00000000       0.21875327       0.00000000 </v>
     <v>       0.00000000       0.00000000       0.03282468 </v>
    </varray>
   </crystal>
   <varray name="positions" >
    <v>       0.00000000       0.00000000       0.39389619 </v>
    <v>       0.50000000       0.00000000       0.39389619 </v>
    <v>       0.00000000       0.50000000       0.39389619 </v>
    <v>       0.50000000       0.50000000       0.39389619 </v>
    <v>       0.16666667       0.16666667       0.46463206 </v>
    <v>       0.66666667       0.16666667       0.46463206 </v>
    <v>       0.16666667       0.66666667       0.46463206 </v>
    <v>       0.66666667       0.66666667       0.46463206 </v>
    <v>       0.84071751       0.32583000       0.53507702 </v>
    <v>       0.33088686       0.33087754       0.53399752 </v>
    <v>       0.83579162       0.83593207       0.53608175 </v>
    <v>       0.32060722       0.84594902       0.53511140 </v>
    <v>       0.99480009       0.00261157       0.60663914 </v>
    <v>       0.50268165       0.00244777       0.60665362 </v>
    <v>       0.99986574       0.50002618       0.60562830 </v>
    <v>       0.50436804       0.49146804       0.61053002 </v>
   </varray>
  </structure>
  <varray name="forces" >
   <v>       0.00693417      -0.00487364       0.15479605 </v>
   <v>      -0.00735385       0.24102137      -0.17239047 </v>
   <v>       0.21162456      -0.11857440      -0.16216564 </v>
   <v>      -0.35037094      -0.19374554      -1.40776629 </v>
   <v>      -0.00180659       0.26874517      -0.41169167 </v>
   <v>       0.00833015      -0.23732172       0.40672950 </v>
   <v>      -0.40849242       0.00172004       0.06122987 </v>
   <v>       0.66292071       0.02178061       0.29700561 </v>
   <v>      -0.28057845       0.35596279       0.10220667 </v>
   <v>       0.19807211       0.20693665      -0.09451100 </v>
   <v>      -0.18332186      -0.00121686       0.09957771 </v>
   <v>       0.16425309      -0.55356053       0.51098314 </v>
   <v>       0.02136243      -0.11509647       0.19262636 </v>
   <v>      -0.04275368      -0.12934445       0.06874363 </v>
   <v>       0.00459676       0.00387476      -0.14408688 </v>
   <v>      -0.00341619       0.25369222       0.49871342 </v>
  </varray>
  <varray name="stress" >
   <v>      16.10550906      -0.28861795      -0.02353377 </v>
   <v>      -0.28861778      15.74978920       0.67604594 </v>
   <v>      -0.02353394       0.67604626      14.61297664 </v>
  </varray>
  <energy>
   <i name="e_fr_energy">    -43.18206908 </i>
   <i name="e_wo_entrp">    -43.11584609 </i>
   <i name="e_0_energy">    -43.14895759 </i>
  </energy>
  <time name="totalsc">   24.27   24.34</time>
 </calculation>
 <calculation>
  <scstep>
   <time name="dav">    1.31    1.31</time>
   <time name="total">    1.46    1.46</time>
   <energy>
    <i name="alphaZ">    265.06055036 </i>
    <i name="ewald"> 137369.08721277 </i>
    <i name="hartreedc">-157157.86540401 </i>
    <i name="XCdc">    482.34258391 </i>
    <i name="pawpsdc">  20172.13424263 </i>
    <i name="pawaedc"> -21278.42008232 </i>
    <i name="eentropy">     -0.06460820 </i>
    <i name="bandstr">   -721.47453910 </i>
    <i name="atom">  20826.04470388 </i>
    <i name="e_fr_energy">    -43.15534009 </i>
    <i name="e_wo_entrp">    -43.09073189 </i>
    <i name="e_0_energy">    -43.12303599 </i>
   </energy>
  </scstep>
  <scstep>
   <time name="dav">    1.86    1.86</time>
   <time name="total">    2.00    2.01</time>
   <energy>
    <i name="e_fr_energy">    -43.25308555 </i>
    <i name="e_wo_entrp">    -43.18929573 </i>
    <i name="e_0_energy">    -43.22119064 </i>
   </energy>
  </scstep>
  <scstep>
   <time name="dav">    1.57    1.58</time>
   <time name="total">    1.72    1.72</time>
   <energy>
    <i name="e_fr_energy">    -43.24874900 </i>
    <i name="e_wo_entrp">    -43.18432301 </i>
    <i name="e_0_energy">    -43.21653600 </i>
   </energy>
  </scstep>
  <scstep>
   <time name="dav">    1.71    1.71</time>
   <time name="total">    1.85    1.86</time>
   <energy>
    <i name="e_fr_energy">    -43.24840799 </i>
    <i name="e_wo_entrp">    -43.18381955 </i>
    <i name="e_0_energy">    -43.21611377 </i>
   </energy>
  </scstep>
  <scstep>
   <time name="dav">    1.64    1.64</time>
   <time name="total">    1.78    1.79</time>
   <energy>
    <i name="e_fr_energy">    -43.24773499 </i>
    <i name="e_wo_entrp">    -43.18301443 </i>
    <i name="e_0_energy">    -43.21537471 </i>
   </energy>
  </scstep>
  <scstep>
   <time name="dav">    1.86    1.87</time>
   <time name="total">    2.01    2.01</time>
   <energy>
    <i name="e_fr_energy">    -43.24691788 </i>
    <i name="e_wo_entrp">    -43.18227040 </i>
    <i name="e_0_energy">    -43.21459414 </i>
   </energy>
  </scstep>
  <scstep>
   <time name="dav">    1.94    1.94</time>
   <time name="total">    2.09    2.09</time>
   <energy>
    <i name="e_fr_energy">    -43.24679147 </i>
    <i name="e_wo_entrp">    -43.18202179 </i>
    <i name="e_0_energy">    -43.21440663 </i>
   </energy>
  </scstep>
  <scstep>
   <time name="dav">    1.49    1.49</time>
   <time name="total">    1.64    1.64</time>
   <energy>
    <i name="e_fr_energy">    -43.24682123 </i>
    <i name="e_wo_entrp">    -43.18201339 </i>
    <i name="e_0_energy">    -43.21441731 </i>
   </energy>
  </scstep>
  <scstep>
   <time name="dav">    1.53    1.54</time>
   <time name="total">    1.68    1.68</time>
   <energy>
    <i name="e_fr_energy">    -43.24682839 </i>
    <i name="e_wo_entrp">    -43.18206549 </i>
    <i name="e_0_energy">    -43.21444694 </i>
   </energy>
  </scstep>
  <scstep>
   <time name="dav">    1.49    1.50</time>
   <time name="total">    1.64    1.64</time>
   <energy>
    <i name="e_fr_energy">    -43.24681531 </i>
    <i name="e_wo_entrp">    -43.18205393 </i>
    <i name="e_0_energy">    -43.21443462 </i>
   </energy>
  </scstep>
  <scstep>
   <time name="dav">    1.56    1.57</time>
   <time name="total">    1.71    1.71</time>
   <energy>
    <i name="e_fr_energy">    -43.24681680 </i>
    <i name="e_wo_entrp">    -43.18207677 </i>
    <i name="e_0_energy">    -43.21444679 </i>
   </energy>
  </scstep>
  <scstep>
   <time name="dav">    1.32    1.33</time>
   <time name="total">    1.47    1.48</time>
   <energy>
    <i name="e_fr_energy">    -43.24681674 </i>
    <i name="e_wo_entrp">    -43.18206924 </i>
    <i name="e_0_energy">    -43.21444299 </i>
   </energy>
  </scstep>
  <scstep>
   <time name="dav">    0.92    0.92</time>
   <time name="total">    0.94    0.94</time>
   <energy>
    <i name="alphaZ">    265.06055036 </i>
    <i name="ewald"> 137369.08721277 </i>
    <i name="hartreedc">-157158.45504989 </i>
    <i name="XCdc">    482.35572781 </i>
    <i name="pawpsdc">  20154.68270597 </i>
    <i name="pawaedc"> -21260.67198505 </i>
    <i name="eentropy">     -0.06474627 </i>
    <i name="bandstr">   -721.28593625 </i>
    <i name="atom">  20826.04470388 </i>
    <i name="e_fr_energy">    -43.24681667 </i>
    <i name="e_wo_entrp">    -43.18207039 </i>
    <i name="e_0_energy">    -43.21444353 </i>
   </energy>
  </scstep>
  <structure>
   <crystal>
    <varray name="basis" >
     <v>       5.27855212       0.00000000       0.00000000 </v>
     <v>       2.63927606       4.57136023       0.00000000 </v>
     <v>       0.00000000       0.00000000      30.46487964 </v>
    </varray>
    <i name="volume">    735.12251919 </i>
    <varray name="rec_basis" >
     <v>       0.18944589      -0.10937664       0.00000000 </v>
     <v>       0.00000000       0.21875327       0.00000000 </v>
     <v>       0.00000000       0.00000000       0.03282468 </v>
    </varray>
   </crystal>
   <varray name="positions" >
    <v>       0.00000000       0.00000000       0.39389619 </v>
    <v>       0.50000000       0.00000000       0.39389619 </v>
    <v>       0.00000000       0.50000000       0.39389619 </v>
    <v>       0.50000000       0.50000000       0.39389619 </v>
    <v>       0.16666667       0.16666667       0.46463206 </v>
    <v>       0.66666667       0.16666667       0.46463206 </v>
    <v>       0.16666667       0.66666667       0.46463206 </v>
    <v>       0.66666667       0.66666667       0.46463206 </v>
    <v>       0.83724185       0.32845334       0.53519816 </v>
    <v>       0.33113497       0.33288028       0.53347468 </v>
    <v>       0.83440670       0.83656790       0.53644967 </v>
    <v>       0.32271966       0.84210681       0.53601720 </v>
    <v>       0.99445920       0.00180982       0.60713899 </v>
    <v>       0.50370343       0.00142471       0.60692190 </v>
    <v>       0.99985795       0.50008176       0.60523560 </v>
    <v>       0.50382036       0.49253969       0.61258598 </v>
   </varray>
  </structure>
  <varray name="forces" >
   <v>       0.00923609      -0.00506827       0.16063581 </v>
   <v>      -0.00936770       0.23978210      -0.16885400 </v>
   <v>       0.21099766      -0.11907514      -0.15796768 </v>
   <v>      -0.34939699      -0.19052519      -1.40991578 </v>
   <v>      -0.01712335       0.21604863      -0.32729923 </v>
   <v>       0.01844863      -0.24759975       0.40673521 </v>
   <v>      -0.38862718       0.03804634       0.09172524 </v>
   <v>       0.62976587       0.06096518       0.36115346 </v>
   <v>      -0.17739759       0.17757233       0.13725798 </v>
   <v>       0.10602575       0.08712761       0.00394158 </v>
   <v>      -0.13405084       0.02604759       0.03484920 </v>
   <v>       0.11986303      -0.30962498       0.35026526 </v>
   <v>       0.01650845      -0.06083023       0.17358118 </v>
   <v>      -0.03389901      -0.05928565       0.07419129 </v>
   <v>       0.01154287      -0.03125513      -0.11566988 </v>
   <v>      -0.01252568       0.17767457       0.38537035 </v>
  </varray>
  <varray name="stress" >
   <v>      15.08440924      -0.25354235       0.06709862 </v>
   <v>      -0.25354238      14.58543018       0.75583763 </v>
   <v>       0.06709851       0.75583726      13.32648878 </v>
  </varray>
  <energy>
   <i name="e_fr_energy">    -43.24681667 </i>
   <i name="e_wo_entrp">    -43.18207039 </i>
   <i name="e_0_energy">    -43.21444353 </i>
  </energy>
  <time name="totalsc">   24.28   24.34</time>
 </calculation>
 <calculation>
  <scstep>
   <time name="dav">    1.31    1.32</time>
   <time name="total">    1.46    1.46</time>
   <energy>
    <i name="alphaZ">    265.06055036 </i>
    <i name="ewald"> 136658.04762030 </i>
    <i name="hartreedc">-156449.64340120 </i>
    <i name="XCdc">    482.10973606 </i>
    <i name="pawpsdc">  20154.69546084 </i>
    <i name="pawaedc"> -21260.68662662 </i>
    <i name="eentropy">     -0.06131917 </i>
    <i name="bandstr">   -718.36770640 </i>
    <i name="atom">  20826.04470388 </i>
    <i name="e_fr_energy">    -42.80098194 </i>
    <i name="e_wo_entrp">    -42.73966277 </i>
    <i name="e_0_energy">    -42.77032236 </i>
   </energy>
  </scstep>
  <scstep>
   <time name="dav">    1.87    1.88</time>
   <time name="total">    2.02    2.02</time>
   <energy>
    <i name="e_fr_energy">    -43.33869859 </i>
    <i name="e_wo_entrp">    -43.27992942 </i>
    <i name="e_0_energy">    -43.30931400 </i>
   </energy>
  </scstep>
  <scstep>
   <time name="dav">    1.57    1.57</time>
   <time name="total">    1.71    1.72</time>
   <energy>
    <i name="e_fr_energy">    -43.31496193 </i>
    <i name="e_wo_entrp">    -43.25391232 </i>
    <i name="e_0_energy">    -43.28443712 </i>
   </energy>
  </scstep>
  <scstep>
   <time name="dav">    1.80    1.80</time>
   <time name="total">    1.94    1.95</time>
   <energy>
    <i name="e_fr_energy">    -43.31498876 </i>
    <i name="e_wo_entrp">    -43.25374384 </i>
    <i name="e_0_energy">    -43.28436630 </i>
   </energy>
  </scstep>
  <scstep>
   <time name="dav">    1.86    1.86</time>
   <time name="total">    2.00    2.01</time>
   <energy>
    <i name="e_fr_energy">    -43.31202525 </i>
    <i name="e_wo_entrp">    -43.25052587 </i>
    <i name="e_0_energy">    -43.28127556 </i>
   </energy>
  </scstep>
  <scstep>
   <time name="dav">    1.80    1.81</time>
   <time name="total">    1.95    1.95</time>
   <energy>
    <i name="e_fr_energy">    -43.30862206 </i>
    <i name="e_wo_entrp">    -43.24731648 </i>
    <i name="e_0_energy">    -43.27796927 </i>
   </energy>
  </scstep>
  <scstep>
   <time name="dav">    1.87    1.87</time>
   <time name="total">    2.02    2.02</time>
   <energy>
    <i name="e_fr_energy">    -43.30742198 </i>
    <i name="e_wo_entrp">    -43.24585479 </i>
    <i name="e_0_energy">    -43.27663838 </i>
   </energy>
  </scstep>
  <scstep>
   <time name="dav">    1.48    1.49</time>
   <time name="total">    1.63    1.63</time>
   <energy>
    <i name="e_fr_energy">    -43.30739940 </i>
    <i name="e_wo_entrp">    -43.24569191 </i>
    <i name="e_0_energy">    -43.27654566 </i>
   </energy>
  </scstep>
  <scstep>
   <time name="dav">    1.54    1.54</time>
   <time name="total">    1.69    1.69</time>
   <energy>
    <i name="e_fr_energy">    -43.30747415 </i>
    <i name="e_wo_entrp">    -43.24576766 </i>
    <i name="e_0_energy">    -43.27662091 </i>
   </energy>
  </scstep>
  <scstep>
   <time name="dav">    1.53    1.54</time>
   <time name="total">    1.68    1.69</time>
   <energy>
    <i name="e_fr_energy">    -43.30746587 </i>
    <i name="e_wo_entrp">    -43.24578341 </i>
    <i name="e_0_energy">    -43.27662464 </i>
   </energy>
  </scstep>
  <scstep>
   <time name="dav">    1.63    1.63</time>
   <time name="total">    1.78    1.78</time>
   <energy>
    <i name="e_fr_energy">    -43.30747105 </i>
    <i name="e_wo_entrp">    -43.24579466 </i>
    <i name="e_0_energy">    -43.27663285 </i>
   </energy>
  </scstep>
  <scstep>
   <time name="dav">    1.51    1.52</time>
   <time name="total">    1.66    1.66</time>
   <energy>
    <i name="e_fr_energy">    -43.30747014 </i>
    <i name="e_wo_entrp">    -43.24578704 </i>
    <i name="e_0_energy">    -43.27662859 </i>
   </energy>
  </scstep>
  <scstep>
   <time name="dav">    1.31    1.31</time>
   <time name="total">    1.46    1.46</time>
   <energy>
    <i name="e_fr_energy">    -43.30747176 </i>
    <i name="e_wo_entrp">    -43.24579576 </i>
    <i name="e_0_energy">    -43.27663376 </i>
   </energy>
  </scstep>
  <scstep>
   <time name="dav">    1.03    1.04</time>
   <time name="total">    1.06    1.06</time>
   <energy>
    <i name="alphaZ">    265.06055036 </i>
    <i name="ewald"> 136658.04762030 </i>
    <i name="hartreedc">-156451.58344942 </i>
    <i name="XCdc">    482.13278122 </i>
    <i name="pawpsdc">  20124.02011650 </i>
    <i name="pawaedc"> -21229.46766354 </i>
    <i name="eentropy">     -0.06167695 </i>
    <i name="bandstr">   -717.50045489 </i>
    <i name="atom">  20826.04470388 </i>
    <i name="e_fr_energy">    -43.30747255 </i>
    <i name="e_wo_entrp">    -43.24579559 </i>
    <i name="e_0_energy">    -43.27663407 </i>
   </energy>
  </scstep>
  <structure>
   <crystal>
    <varray name="basis" >
     <v>       5.27855212       0.00000000       0.00000000 </v>
     <v>       2.63927606       4.57136023       0.00000000 </v>
     <v>       0.00000000       0.00000000      30.46487964 </v>
    </varray>
    <i name="volume">    735.12251919 </i>
    <varray name="rec_basis" >
     <v>       0.18944589      -0.10937664       0.00000000 </v>
     <v>       0.00000000       0.21875327       0.00000000 </v>
     <v>       0.00000000       0.00000000       0.03282468 </v>
    </varray>
   </crystal>
   <varray name="positions" >
    <v>       0.00000000       0.00000000       0.39389619 </v>
    <v>       0.50000000       0.00000000       0.39389619 </v>
    <v>       0.00000000       0.50000000       0.39389619 </v>
    <v>       0.50000000       0.50000000       0.39389619 </v>
    <v>       0.16666667       0.16666667       0.46463206 </v>
    <v>       0.66666667       0.16666667       0.46463206 </v>
    <v>       0.16666667       0.66666667       0.46463206 </v>
    <v>       0.66666667       0.66666667       0.46463206 </v>
    <v>       0.82985031       0.33403228       0.53545577 </v>
    <v>       0.33166262       0.33713944       0.53236277 </v>
    <v>       0.83146146       0.83792009       0.53723212 </v>
    <v>       0.32721210       0.83393572       0.53794352 </v>
    <v>       0.99373423       0.00010476       0.60820199 </v>
    <v>       0.50587641       0.99924900       0.60749245 </v>
    <v>       0.99984138       0.50019997       0.60440046 </v>
    <v>       0.50265562       0.49481873       0.61695832 </v>
   </varray>
  </structure>
  <varray name="forces" >
   <v>       0.01358291      -0.00668197       0.16777495 </v>
   <v>      -0.01404781       0.23556438      -0.16559703 </v>
   <v>       0.20921885      -0.12185535      -0.15447065 </v>
   <v>      -0.34745318      -0.18665956      -1.41716361 </v>
   <v>      -0.04782277       0.12532421      -0.19630147 </v>
   <v>       0.04194405      -0.27190435       0.39529899 </v>
   <v>      -0.35183274       0.11205660       0.13326658 </v>
   <v>       0.56750347       0.13399858       0.48306066 </v>
   <v>       0.04319132      -0.19387110       0.17543637 </v>
   <v>      -0.11357683      -0.17359068       0.19100266 </v>
   <v>      -0.02997570       0.08586468      -0.09303419 </v>
   <v>       0.02127903       0.16728692       0.11152703 </v>
   <v>       0.01383862       0.04649117       0.10843606 </v>
   <v>      -0.01458899       0.08113513       0.09096241 </v>
   <v>       0.02988406      -0.11211059      -0.03924165 </v>
   <v>      -0.02114427       0.07895191       0.20904289 </v>
  </varray>
  <varray name="stress" >
   <v>      13.37645379      -0.12449888       0.37530732 </v>
   <v>      -0.12449895      12.70911837       0.91349400 </v>
   <v>       0.37530737       0.91349383      11.15793519 </v>
  </varray>
  <energy>
   <i name="e_fr_energy">    -43.30747255 </i>
   <i name="e_wo_entrp">    -43.24579559 </i>
   <i name="e_0_energy">    -43.27663407 </i>
  </energy>
  <time name="totalsc">   26.33   26.40</time>
 </calculation>
 <calculation>
  <scstep>
   <time name="dav">    1.31    1.31</time>
   <time name="total">    1.46    1.46</time>
   <energy>
    <i name="alphaZ">    265.06055036 </i>
    <i name="ewald"> 136535.68050360 </i>
    <i name="hartreedc">-156329.51258300 </i>
    <i name="XCdc">    482.09053649 </i>
    <i name="pawpsdc">  20123.99248328 </i>
    <i name="pawaedc"> -21229.44197858 </i>
    <i name="eentropy">     -0.06112157 </i>
    <i name="bandstr">   -717.15278844 </i>
    <i name="atom">  20826.04470388 </i>
    <i name="e_fr_energy">    -43.29969396 </i>
    <i name="e_wo_entrp">    -43.23857239 </i>
    <i name="e_0_energy">    -43.26913318 </i>
   </energy>
  </scstep>
  <scstep>
   <time name="dav">    1.84    1.84</time>
   <time name="total">    1.98    1.99</time>
   <energy>
    <i name="e_fr_energy">    -43.30926575 </i>
    <i name="e_wo_entrp">    -43.24827261 </i>
    <i name="e_0_energy">    -43.27876918 </i>
   </energy>
  </scstep>
  <scstep>
   <time name="dav">    1.54    1.55</time>
   <time name="total">    1.69    1.69</time>
   <energy>
    <i name="e_fr_energy">    -43.30908157 </i>
    <i name="e_wo_entrp">    -43.24799062 </i>
    <i name="e_0_energy">    -43.27853609 </i>
   </energy>
  </scstep>
  <scstep>
   <time name="dav">    1.54    1.54</time>
   <time name="total">    1.69    1.69</time>
   <energy>
    <i name="e_fr_energy">    -43.30901174 </i>
    <i name="e_wo_entrp">    -43.24783234 </i>
    <i name="e_0_energy">    -43.27842204 </i>
   </energy>
  </scstep>
  <scstep>
   <time name="dav">    1.57    1.57</time>
   <time name="total">    1.72    1.73</time>
   <energy>
    <i name="e_fr_energy">    -43.30892631 </i>
    <i name="e_wo_entrp">    -43.24780330 </i>
    <i name="e_0_energy">    -43.27836480 </i>
   </energy>
  </scstep>
  <scstep>
   <time name="dav">    2.09    2.10</time>
   <time name="total">    2.24    2.24</time>
   <energy>
    <i name="e_fr_energy">    -43.30891848 </i>
    <i name="e_wo_entrp">    -43.24775048 </i>
    <i name="e_0_energy">    -43.27833448 </i>
   </energy>
  </scstep>
  <scstep>
   <time name="dav">    1.64    1.64</time>
   <time name="total">    1.78    1.79</time>
   <energy>
    <i name="e_fr_energy">    -43.30890006 </i>
    <i name="e_wo_entrp">    -43.24769890 </i>
    <i name="e_0_energy">    -43.27829948 </i>
   </energy>
  </scstep>
  <scstep>
   <time name="dav">    1.69    1.70</time>
   <time name="total">    1.84    1.84</time>
   <energy>
    <i name="e_fr_energy">    -43.30889765 </i>
    <i name="e_wo_entrp">    -43.24768736 </i>
    <i name="e_0_energy">    -43.27829250 </i>
   </energy>
  </scstep>
  <scstep>
   <time name="dav">    1.49    1.49</time>
   <time name="total">    1.63    1.64</time>
   <energy>
    <i name="e_fr_energy">    -43.30889805 </i>
    <i name="e_wo_entrp">    -43.24770006 </i>
    <i name="e_0_energy">    -43.27829906 </i>
   </energy>
  </scstep>
  <scstep>
   <time name="dav">    1.29    1.29</time>
   <time name="total">    1.31    1.31</time>
   <energy>
    <i name="alphaZ">    265.06055036 </i>
    <i name="ewald"> 136535.68050360 </i>
    <i name="hartreedc">-156330.14748606 </i>
    <i name="XCdc">    482.09873849 </i>
    <i name="pawpsdc">  20119.61670366 </i>
    <i name="pawaedc"> -21224.99085581 </i>
    <i name="eentropy">     -0.06119078 </i>
    <i name="bandstr">   -716.61056594 </i>
    <i name="atom">  20826.04470388 </i>
    <i name="e_fr_energy">    -43.30889858 </i>
    <i name="e_wo_entrp">    -43.24770780 </i>
    <i name="e_0_energy">    -43.27830319 </i>
   </energy>
  </scstep>
  <structure>
   <crystal>
    <varray name="basis" >
     <v>       5.27855212       0.00000000       0.00000000 </v>
     <v>       2.63927606       4.57136023       0.00000000 </v>
     <v>       0.00000000       0.00000000      30.46487964 </v>
    </varray>
    <i name="volume">    735.12251919 </i>
    <varray name="rec_basis" >
     <v>       0.18944589      -0.10937664       0.00000000 </v>
     <v>       0.00000000       0.21875327       0.00000000 </v>
     <v>       0.00000000       0.00000000       0.03282468 </v>
    </varray>
   </crystal>
   <varray name="positions" >
    <v>       0.00000000       0.00000000       0.39389619 </v>
    <v>       0.50000000       0.00000000       0.39389619 </v>
    <v>       0.00000000       0.50000000       0.39389619 </v>
    <v>       0.50000000       0.50000000       0.39389619 </v>
    <v>       0.16666667       0.16666667       0.46463206 </v>
    <v>       0.66666667       0.16666667       0.46463206 </v>
    <v>       0.16666667       0.66666667       0.46463206 </v>
    <v>       0.66666667       0.66666667       0.46463206 </v>
    <v>       0.82858791       0.33498511       0.53549976 </v>
    <v>       0.33175274       0.33786686       0.53217287 </v>
    <v>       0.83095844       0.83815104       0.53736575 </v>
    <v>       0.32797937       0.83254018       0.53827252 </v>
    <v>       0.99361041       0.99981356       0.60838354 </v>
    <v>       0.50624753       0.99887741       0.60758990 </v>
    <v>       0.99983855       0.50022016       0.60425782 </v>
    <v>       0.50245670       0.49520797       0.61770507 </v>
   </varray>
  </structure>
  <varray name="forces" >
   <v>       0.01378383      -0.00617741       0.17048299 </v>
   <v>      -0.01545537       0.23564740      -0.16358858 </v>
   <v>       0.20828134      -0.12150399      -0.15283220 </v>
   <v>      -0.34780140      -0.18519082      -1.41708996 </v>
   <v>      -0.05338090       0.11333653      -0.17774411 </v>
   <v>       0.04565597      -0.27534464       0.39397771 </v>
   <v>      -0.34694204       0.12541197       0.13917308 </v>
   <v>       0.55753091       0.14611353       0.50375764 </v>
   <v>       0.08203714      -0.25575434       0.17798555 </v>
   <v>      -0.15406210      -0.21748827       0.21898806 </v>
   <v>      -0.01306061       0.09721516      -0.11265803 </v>
   <v>       0.00989631       0.24018416       0.07422602 </v>
   <v>       0.01427959       0.06511943       0.09849633 </v>
   <v>      -0.01270125       0.10512606       0.09512451 </v>
   <v>       0.03285234      -0.12574242      -0.02243710 </v>
   <v>      -0.02091376       0.05904764       0.17413810 </v>
  </varray>
  <varray name="stress" >
   <v>      12.85320139      -0.11079404       0.42872143 </v>
   <v>      -0.11079372      12.18400086       0.97728591 </v>
   <v>       0.42872142       0.97728572      10.52936880 </v>
  </varray>
  <energy>
   <i name="e_fr_energy">    -43.30889858 </i>
   <i name="e_wo_entrp">    -43.24770780 </i>
   <i name="e_0_energy">    -43.27830319 </i>
  </energy>
  <time name="totalsc">   19.62   19.68</time>
 </calculation>
 <calculation>
  <scstep>
   <time name="dav">    1.31    1.32</time>
   <time name="total">    1.46    1.46</time>
   <energy>
    <i name="alphaZ">    265.06055036 </i>
    <i name="ewald"> 136162.02612381 </i>
    <i name="hartreedc">-155957.37285806 </i>
    <i name="XCdc">    481.96877922 </i>
    <i name="pawpsdc">  20119.57481342 </i>
    <i name="pawaedc"> -21224.94380321 </i>
    <i name="eentropy">     -0.06024832 </i>
    <i name="bandstr">   -715.55586735 </i>
    <i name="atom">  20826.04470388 </i>
    <i name="e_fr_energy">    -43.25780625 </i>
    <i name="e_wo_entrp">    -43.19755793 </i>
    <i name="e_0_energy">    -43.22768209 </i>
   </energy>
  </scstep>
  <scstep>
   <time name="dav">    1.87    1.87</time>
   <time name="total">    2.01    2.02</time>
   <energy>
    <i name="e_fr_energy">    -43.33932318 </i>
    <i name="e_wo_entrp">    -43.28026723 </i>
    <i name="e_0_energy">    -43.30979520 </i>
   </energy>
  </scstep>
  <scstep>
   <time name="dav">    1.58    1.58</time>
   <time name="total">    1.72    2.45</time>
   <energy>
    <i name="e_fr_energy">    -43.33501746 </i>
    <i name="e_wo_entrp">    -43.27505884 </i>
    <i name="e_0_energy">    -43.30503815 </i>
   </energy>
  </scstep>
  <scstep>
   <time name="dav">    1.76    1.77</time>
   <time name="total">    1.91    1.91</time>
   <energy>
    <i name="e_fr_energy">    -43.33464899 </i>
    <i name="e_wo_entrp">    -43.27456723 </i>
    <i name="e_0_energy">    -43.30460811 </i>
   </energy>
  </scstep>
  <scstep>
   <time name="dav">    1.61    1.61</time>
   <time name="total">    1.76    1.76</time>
   <energy>
    <i name="e_fr_energy">    -43.33415658 </i>
    <i name="e_wo_entrp">    -43.27392178 </i>
    <i name="e_0_energy">    -43.30403918 </i>
   </energy>
  </scstep>
  <scstep>
   <time name="dav">    2.05    2.06</time>
   <time name="total">    2.20    2.21</time>
   <energy>
    <i name="e_fr_energy">    -43.33349165 </i>
    <i name="e_wo_entrp">    -43.27325605 </i>
    <i name="e_0_energy">    -43.30337385 </i>
   </energy>
  </scstep>
  <scstep>
   <time name="dav">    2.02    2.03</time>
   <time name="total">    2.17    2.17</time>
   <energy>
    <i name="e_fr_energy">    -43.33332083 </i>
    <i name="e_wo_entrp">    -43.27300451 </i>
    <i name="e_0_energy">    -43.30316267 </i>
   </energy>
  </scstep>
  <scstep>
   <time name="dav">    1.56    1.57</time>
   <time name="total">    1.71    1.71</time>
   <energy>
    <i name="e_fr_energy">    -43.33334726 </i>
    <i name="e_wo_entrp">    -43.27294783 </i>
    <i name="e_0_energy">    -43.30314755 </i>
   </energy>
  </scstep>
  <scstep>
   <time name="dav">    1.57    1.57</time>
   <time name="total">    1.71    1.72</time>
   <energy>
    <i name="e_fr_energy">    -43.33335425 </i>
    <i name="e_wo_entrp">    -43.27296843 </i>
    <i name="e_0_energy">    -43.30316134 </i>
   </energy>
  </scstep>
  <scstep>
   <time name="dav">    1.58    1.58</time>
   <time name="total">    1.73    1.73</time>
   <energy>
    <i name="e_fr_energy">    -43.33334347 </i>
    <i name="e_wo_entrp">    -43.27299528 </i>
    <i name="e_0_energy">    -43.30316938 </i>
   </energy>
  </scstep>
  <scstep>
   <time name="dav">    1.55    1.55</time>
   <time name="total">    1.69    1.70</time>
   <energy>
    <i name="e_fr_energy">    -43.33334481 </i>
    <i name="e_wo_entrp">    -43.27301864 </i>
    <i name="e_0_energy">    -43.30318173 </i>
   </energy>
  </scstep>
  <scstep>
   <time name="dav">    1.29    1.29</time>
   <time name="total">    1.44    1.44</time>
   <energy>
    <i name="e_fr_energy">    -43.33334506 </i>
    <i name="e_wo_entrp">    -43.27302377 </i>
    <i name="e_0_energy">    -43.30318442 </i>
   </energy>
  </scstep>
  <scstep>
   <time name="dav">    0.97    0.98</time>
   <time name="total">    1.00    1.00</time>
   <energy>
    <i name="alphaZ">    265.06055036 </i>
    <i name="ewald"> 136162.02612381 </i>
    <i name="hartreedc">-155958.73882349 </i>
    <i name="XCdc">    481.98983403 </i>
    <i name="pawpsdc">  20103.88199005 </i>
    <i name="pawaedc"> -21208.98342188 </i>
    <i name="eentropy">     -0.06032870 </i>
    <i name="bandstr">   -714.55397325 </i>
    <i name="atom">  20826.04470388 </i>
    <i name="e_fr_energy">    -43.33334520 </i>
    <i name="e_wo_entrp">    -43.27301650 </i>
    <i name="e_0_energy">    -43.30318085 </i>
   </energy>
  </scstep>
  <structure>
   <crystal>
    <varray name="basis" >
     <v>       5.27855212       0.00000000       0.00000000 </v>
     <v>       2.63927606       4.57136023       0.00000000 </v>
     <v>       0.00000000       0.00000000      30.46487964 </v>
    </varray>
    <i name="volume">    735.12251919 </i>
    <varray name="rec_basis" >
     <v>       0.18944589      -0.10937664       0.00000000 </v>
     <v>       0.00000000       0.21875327       0.00000000 </v>
     <v>       0.00000000       0.00000000       0.03282468 </v>
    </varray>
   </crystal>
   <varray name="positions" >
    <v>       0.00000000       0.00000000       0.39389619 </v>
    <v>       0.50000000       0.00000000       0.39389619 </v>
    <v>       0.00000000       0.50000000       0.39389619 </v>
    <v>       0.50000000       0.50000000       0.39389619 </v>
[...]
        <r>  0.0075  0.0012  0.0003  0.0035  0.0033  0.0002  0.0038  0.0005  0.0030 </r>
        <r>  0.0070  0.0019  0.0004  0.0030  0.0027  0.0002  0.0040  0.0004  0.0036 </r>
        <r>  0.0084  0.0016  0.0042  0.0040  0.0033  0.0021  0.0028  0.0011  0.0029 </r>
        <r>  0.0013  0.0104  0.0043  0.0290  0.0067  0.0006  0.0011  0.0002  0.0184 </r>
        <r>  0.0019  0.0068  0.0000  0.0270  0.0089  0.0001  0.0008  0.0001  0.0184 </r>
        <r>  0.0016  0.0107  0.0000  0.0234  0.0058  0.0002  0.0008  0.0001  0.0214 </r>
        <r>  0.0021  0.0097  0.0032  0.0293  0.0069  0.0008  0.0006  0.0004  0.0180 </r>
        <r>  0.0049  0.0063  0.0002  0.0184  0.0061  0.0001  0.0016  0.0003  0.0144 </r>
        <r>  0.0048  0.0067  0.0048  0.0194  0.0058  0.0017  0.0034  0.0008  0.0111 </r>
        <r>  0.0036  0.0065  0.0045  0.0175  0.0060  0.0010  0.0013  0.0006  0.0145 </r>
        <r>  0.0057  0.0080  0.0001  0.0199  0.0060  0.0001  0.0013  0.0002  0.0132 </r>
        <r>  0.0043  0.0011  0.0042  0.0022  0.0015  0.0016  0.0029  0.0007  0.0016 </r>
        <r>  0.0030  0.0008  0.0001  0.0026  0.0015  0.0001  0.0021  0.0003  0.0020 </r>
        <r>  0.0050  0.0011  0.0001  0.0019  0.0018  0.0002  0.0029  0.0005  0.0017 </r>
        <r>  0.0007  0.0007  0.0034  0.0015  0.0014  0.0008  0.0017  0.0007  0.0016 </r>
       </set>
       <set comment="band 95">
        <r>  0.0005  0.0040  0.0003  0.0123  0.0028  0.0007  0.0001  0.0017  0.0081 </r>
        <r>  0.0004  0.0038  0.0008  0.0123  0.0030  0.0004  0.0001  0.0016  0.0071 </r>
        <r>  0.0004  0.0042  0.0007  0.0114  0.0023  0.0012  0.0001  0.0013  0.0080 </r>
        <r>  0.0002  0.0048  0.0000  0.0138  0.0029  0.0004  0.0004  0.0009  0.0082 </r>
        <r>  0.0208  0.0047  0.0008  0.0082  0.0083  0.0006  0.0068  0.0003  0.0073 </r>
        <r>  0.0172  0.0042  0.0001  0.0087  0.0082  0.0002  0.0079  0.0001  0.0061 </r>
        <r>  0.0178  0.0044  0.0001  0.0077  0.0070  0.0000  0.0069  0.0003  0.0071 </r>
        <r>  0.0205  0.0059  0.0018  0.0099  0.0081  0.0005  0.0061  0.0005  0.0073 </r>
        <r>  0.0133  0.0064  0.0012  0.0135  0.0072  0.0007  0.0063  0.0002  0.0091 </r>
        <r>  0.0153  0.0040  0.0000  0.0134  0.0085  0.0000  0.0041  0.0001  0.0092 </r>
        <r>  0.0122  0.0069  0.0001  0.0100  0.0056  0.0000  0.0063  0.0001  0.0093 </r>
        <r>  0.0130  0.0061  0.0015  0.0151  0.0076  0.0004  0.0047  0.0003  0.0097 </r>
        <r>  0.0011  0.0039  0.0008  0.0113  0.0024  0.0012  0.0003  0.0020  0.0070 </r>
        <r>  0.0002  0.0032  0.0001  0.0116  0.0025  0.0004  0.0005  0.0016  0.0068 </r>
        <r>  0.0007  0.0045  0.0001  0.0111  0.0023  0.0007  0.0006  0.0011  0.0067 </r>
        <r>  0.0000  0.0031  0.0011  0.0095  0.0021  0.0005  0.0002  0.0013  0.0057 </r>
       </set>
       <set comment="band 96">
        <r>  0.0045  0.0099  0.0005  0.0270  0.0061  0.0004  0.0011  0.0004  0.0140 </r>
        <r>  0.0039  0.0068  0.0013  0.0259  0.0072  0.0007  0.0010  0.0008  0.0128 </r>
        <r>  0.0045  0.0109  0.0009  0.0228  0.0049  0.0005  0.0009  0.0005  0.0148 </r>
        <r>  0.0040  0.0093  0.0008  0.0270  0.0068  0.0008  0.0009  0.0014  0.0151 </r>
        <r>  0.0094  0.0031  0.0036  0.0015  0.0037  0.0016  0.0037  0.0009  0.0017 </r>
        <r>  0.0102  0.0011  0.0059  0.0023  0.0040  0.0004  0.0020  0.0007  0.0013 </r>
        <r>  0.0097  0.0028  0.0045  0.0006  0.0034  0.0015  0.0026  0.0005  0.0019 </r>
        <r>  0.0125  0.0016  0.0068  0.0014  0.0050  0.0004  0.0013  0.0004  0.0019 </r>
        <r>  0.0105  0.0031  0.0032  0.0006  0.0036  0.0003  0.0028  0.0012  0.0016 </r>
        <r>  0.0106  0.0007  0.0011  0.0010  0.0041  0.0003  0.0015  0.0007  0.0011 </r>
        <r>  0.0074  0.0028  0.0030  0.0003  0.0035  0.0002  0.0038  0.0007  0.0017 </r>
        <r>  0.0141  0.0016  0.0021  0.0015  0.0050  0.0010  0.0020  0.0008  0.0015 </r>
        <r>  0.0015  0.0079  0.0001  0.0217  0.0040  0.0008  0.0004  0.0010  0.0110 </r>
        <r>  0.0024  0.0056  0.0003  0.0198  0.0044  0.0001  0.0006  0.0006  0.0093 </r>
        <r>  0.0017  0.0085  0.0002  0.0198  0.0041  0.0003  0.0006  0.0003  0.0104 </r>
        <r>  0.0009  0.0061  0.0007  0.0182  0.0037  0.0004  0.0005  0.0012  0.0094 </r>
       </set>
       <set comment="band 97">
        <r>  0.0126  0.0046  0.0002  0.0062  0.0063  0.0005  0.0031  0.0005  0.0045 </r>
        <r>  0.0156  0.0040  0.0025  0.0070  0.0062  0.0014  0.0015  0.0007  0.0034 </r>
        <r>  0.0146  0.0057  0.0041  0.0052  0.0051  0.0013  0.0015  0.0001  0.0046 </r>
        <r>  0.0117  0.0050  0.0010  0.0069  0.0069  0.0005  0.0031  0.0002  0.0041 </r>
        <r>  0.0009  0.0031  0.0151  0.0094  0.0017  0.0018  0.0004  0.0014  0.0042 </r>
        <r>  0.0020  0.0027  0.0033  0.0087  0.0016  0.0018  0.0000  0.0008  0.0039 </r>
        <r>  0.0022  0.0036  0.0046  0.0089  0.0012  0.0011  0.0000  0.0018  0.0038 </r>
        <r>  0.0002  0.0031  0.0041  0.0095  0.0017  0.0044  0.0009  0.0022  0.0053 </r>
        <r>  0.0047  0.0038  0.0121  0.0116  0.0023  0.0024  0.0004  0.0015  0.0056 </r>
        <r>  0.0026  0.0036  0.0025  0.0118  0.0022  0.0021  0.0008  0.0008  0.0038 </r>
        <r>  0.0012  0.0042  0.0084  0.0097  0.0021  0.0011  0.0013  0.0015  0.0055 </r>
        <r>  0.0083  0.0050  0.0087  0.0116  0.0030  0.0038  0.0003  0.0010  0.0059 </r>
        <r>  0.0171  0.0081  0.0031  0.0118  0.0069  0.0014  0.0038  0.0005  0.0064 </r>
        <r>  0.0190  0.0057  0.0016  0.0094  0.0079  0.0007  0.0025  0.0001  0.0050 </r>
        <r>  0.0196  0.0082  0.0014  0.0098  0.0085  0.0006  0.0026  0.0004  0.0063 </r>
        <r>  0.0111  0.0055  0.0024  0.0109  0.0069  0.0010  0.0030  0.0004  0.0054 </r>
       </set>
       <set comment="band 98">
        <r>  0.0000  0.0000  0.0331  0.0000  0.0001  0.0032  0.0000  0.0040  0.0000 </r>
        <r>  0.0000  0.0002  0.0028  0.0000  0.0001  0.0006  0.0001  0.0090  0.0001 </r>
        <r>  0.0001  0.0001  0.0037  0.0001  0.0001  0.0012  0.0001  0.0073  0.0000 </r>
        <r>  0.0009  0.0000  0.0259  0.0000  0.0001  0.0050  0.0000  0.0055  0.0002 </r>
        <r>  0.0003  0.0000  0.0048  0.0000  0.0005  0.0011  0.0001  0.0097  0.0000 </r>
        <r>  0.0005  0.0002  0.0261  0.0000  0.0005  0.0029  0.0004  0.0054  0.0001 </r>
        <r>  0.0003  0.0002  0.0245  0.0003  0.0001  0.0036  0.0002  0.0031  0.0004 </r>
        <r>  0.0009  0.0006  0.0033  0.0005  0.0003  0.0014  0.0001  0.0093  0.0001 </r>
        <r>  0.0007  0.0004  0.0175  0.0002  0.0005  0.0032  0.0003  0.0057  0.0001 </r>
        <r>  0.0008  0.0003  0.0105  0.0005  0.0006  0.0023  0.0008  0.0066  0.0004 </r>
        <r>  0.0005  0.0006  0.0152  0.0005  0.0005  0.0029  0.0000  0.0056  0.0001 </r>
        <r>  0.0002  0.0004  0.0178  0.0000  0.0004  0.0021  0.0006  0.0067  0.0001 </r>
        <r>  0.0003  0.0009  0.0276  0.0007  0.0001  0.0033  0.0000  0.0033  0.0001 </r>
        <r>  0.0014  0.0009  0.0024  0.0011  0.0001  0.0019  0.0005  0.0081  0.0000 </r>
        <r>  0.0004  0.0001  0.0039  0.0010  0.0005  0.0022  0.0004  0.0070  0.0008 </r>
        <r>  0.0036  0.0006  0.0413  0.0018  0.0004  0.0034  0.0005  0.0033  0.0002 </r>
       </set>
       <set comment="band 99">
        <r>  0.0010  0.0001  0.0026  0.0003  0.0000  0.0047  0.0000  0.0060  0.0000 </r>
        <r>  0.0002  0.0001  0.0312  0.0001  0.0000  0.0062  0.0001  0.0008  0.0004 </r>
        <r>  0.0004  0.0000  0.0327  0.0001  0.0000  0.0069  0.0003  0.0004  0.0000 </r>
        <r>  0.0001  0.0001  0.0024  0.0001  0.0001  0.0050  0.0000  0.0073  0.0004 </r>
        <r>  0.0009  0.0003  0.0292  0.0002  0.0002  0.0066  0.0000  0.0010  0.0007 </r>
        <r>  0.0003  0.0001  0.0058  0.0005  0.0006  0.0046  0.0001  0.0065  0.0003 </r>
        <r>  0.0008  0.0007  0.0050  0.0000  0.0001  0.0049  0.0003  0.0047  0.0004 </r>
        <r>  0.0002  0.0002  0.0260  0.0003  0.0002  0.0090  0.0001  0.0027  0.0005 </r>
        <r>  0.0016  0.0005  0.0112  0.0002  0.0013  0.0063  0.0004  0.0052  0.0003 </r>
        <r>  0.0004  0.0004  0.0247  0.0001  0.0010  0.0044  0.0000  0.0043  0.0006 </r>
        <r>  0.0046  0.0011  0.0126  0.0006  0.0002  0.0066  0.0001  0.0011  0.0006 </r>
        <r>  0.0019  0.0003  0.0164  0.0007  0.0008  0.0057  0.0005  0.0031  0.0007 </r>
        <r>  0.0035  0.0017  0.0024  0.0015  0.0003  0.0045  0.0002  0.0032  0.0002 </r>
        <r>  0.0010  0.0002  0.0251  0.0007  0.0006  0.0063  0.0008  0.0003  0.0005 </r>
        <r>  0.0034  0.0004  0.0235  0.0003  0.0009  0.0047  0.0007  0.0010  0.0003 </r>
        <r>  0.0014  0.0008  0.0080  0.0007  0.0014  0.0049  0.0001  0.0048  0.0017 </r>
       </set>
       <set comment="band 100">
        <r>  0.0002  0.0015  0.0000  0.0024  0.0006  0.0007  0.0033  0.0005  0.0010 </r>
        <r>  0.0085  0.0011  0.0018  0.0027  0.0005  0.0002  0.0014  0.0001  0.0007 </r>
        <r>  0.0086  0.0017  0.0014  0.0024  0.0002  0.0000  0.0013  0.0003  0.0009 </r>
        <r>  0.0006  0.0012  0.0036  0.0024  0.0004  0.0001  0.0051  0.0001  0.0007 </r>
        <r>  0.0005  0.0000  0.0007  0.0004  0.0020  0.0003  0.0044  0.0018  0.0006 </r>
        <r>  0.0133  0.0030  0.0037  0.0015  0.0011  0.0009  0.0025  0.0014  0.0002 </r>
        <r>  0.0142  0.0038  0.0041  0.0011  0.0006  0.0010  0.0024  0.0009  0.0006 </r>
        <r>  0.0004  0.0002  0.0001  0.0001  0.0014  0.0003  0.0056  0.0002  0.0007 </r>
        <r>  0.0179  0.0026  0.0027  0.0016  0.0003  0.0001  0.0027  0.0021  0.0001 </r>
        <r>  0.0014  0.0004  0.0034  0.0004  0.0008  0.0008  0.0079  0.0024  0.0005 </r>
        <r>  0.0002  0.0004  0.0004  0.0007  0.0007  0.0003  0.0049  0.0004  0.0002 </r>
        <r>  0.0159  0.0022  0.0021  0.0006  0.0004  0.0019  0.0037  0.0015  0.0003 </r>
        <r>  0.0001  0.0013  0.0048  0.0028  0.0020  0.0000  0.0044  0.0001  0.0012 </r>
        <r>  0.0163  0.0033  0.0002  0.0034  0.0010  0.0001  0.0027  0.0007  0.0013 </r>
        <r>  0.0172  0.0041  0.0001  0.0034  0.0007  0.0000  0.0025  0.0006  0.0010 </r>
        <r>  0.0001  0.0016  0.0036  0.0036  0.0015  0.0018  0.0071  0.0009  0.0013 </r>
       </set>
       <set comment="band 101">
        <r>  0.0158  0.0046  0.0001  0.0095  0.0022  0.0003  0.0000  0.0011  0.0034 </r>
        <r>  0.0042  0.0031  0.0009  0.0089  0.0023  0.0000  0.0030  0.0008  0.0031 </r>
        <r>  0.0051  0.0029  0.0008  0.0089  0.0021  0.0006  0.0023  0.0004  0.0035 </r>
        <r>  0.0146  0.0045  0.0008  0.0100  0.0025  0.0002  0.0000  0.0004  0.0040 </r>
        <r>  0.0194  0.0050  0.0017  0.0021  0.0035  0.0028  0.0000  0.0049  0.0012 </r>
        <r>  0.0062  0.0012  0.0017  0.0017  0.0041  0.0010  0.0028  0.0042  0.0010 </r>
        <r>  0.0062  0.0023  0.0030  0.0001  0.0037  0.0023  0.0020  0.0054  0.0016 </r>
        <r>  0.0215  0.0042  0.0109  0.0011  0.0041  0.0017  0.0001  0.0061  0.0014 </r>
        <r>  0.0092  0.0024  0.0030  0.0020  0.0043  0.0029  0.0024  0.0034  0.0020 </r>
        <r>  0.0206  0.0060  0.0028  0.0043  0.0037  0.0012  0.0002  0.0024  0.0014 </r>
        <r>  0.0207  0.0038  0.0016  0.0008  0.0048  0.0028  0.0002  0.0071  0.0017 </r>
        <r>  0.0054  0.0028  0.0049  0.0004  0.0063  0.0017  0.0025  0.0089  0.0018 </r>
        <r>  0.0156  0.0056  0.0024  0.0131  0.0020  0.0004  0.0001  0.0010  0.0040 </r>
        <r>  0.0031  0.0026  0.0010  0.0136  0.0023  0.0001  0.0022  0.0011  0.0042 </r>
        <r>  0.0039  0.0039  0.0006  0.0093  0.0017  0.0009  0.0027  0.0013  0.0036 </r>
        <r>  0.0105  0.0043  0.0013  0.0125  0.0025  0.0006  0.0000  0.0005  0.0055 </r>
       </set>
       <set comment="band 102">
        <r>  0.0010  0.0000  0.0001  0.0001  0.0001  0.0004  0.0019  0.0001  0.0000 </r>
        <r>  0.0029  0.0005  0.0018  0.0004  0.0000  0.0004  0.0012  0.0000  0.0000 </r>
        <r>  0.0029  0.0007  0.0018  0.0001  0.0000  0.0001  0.0012  0.0003  0.0001 </r>
        <r>  0.0006  0.0001  0.0023  0.0001  0.0002  0.0001  0.0013  0.0000  0.0001 </r>
        <r>  0.0003  0.0001  0.0015  0.0000  0.0000  0.0005  0.0006  0.0002  0.0001 </r>
        <r>  0.0008  0.0000  0.0020  0.0001  0.0000  0.0004  0.0002  0.0000  0.0000 </r>
        <r>  0.0008  0.0000  0.0021  0.0001  0.0000  0.0002  0.0002  0.0002  0.0000 </r>
        <r>  0.0002  0.0003  0.0030  0.0002  0.0000  0.0003  0.0003  0.0002  0.0000 </r>
        <r>  0.0001  0.0001  0.0027  0.0000  0.0000  0.0004  0.0000  0.0002  0.0000 </r>
        <r>  0.0000  0.0000  0.0023  0.0001  0.0001  0.0003  0.0000  0.0001  0.0000 </r>
        <r>  0.0000  0.0002  0.0016  0.0000  0.0000  0.0004  0.0000  0.0002  0.0000 </r>
        <r>  0.0002  0.0000  0.0033  0.0000  0.0001  0.0004  0.0001  0.0001  0.0000 </r>
        <r>  0.0000  0.0000  0.0004  0.0000  0.0002  0.0004  0.0007  0.0002  0.0001 </r>
        <r>  0.0018  0.0005  0.0030  0.0002  0.0001  0.0003  0.0003  0.0000  0.0000 </r>
        <r>  0.0014  0.0003  0.0029  0.0001  0.0001  0.0003  0.0002  0.0002  0.0000 </r>
        <r>  0.0008  0.0000  0.0002  0.0000  0.0003  0.0000  0.0022  0.0000  0.0001 </r>
       </set>
       <set comment="band 103">
        <r>  0.0257  0.0109  0.0013  0.0050  0.0090  0.0001  0.0005  0.0000  0.0034 </r>
        <r>  0.0243  0.0080  0.0031  0.0061  0.0090  0.0002  0.0002  0.0001  0.0031 </r>
        <r>  0.0225  0.0115  0.0045  0.0030  0.0086  0.0001  0.0004  0.0003  0.0035 </r>
        <r>  0.0200  0.0099  0.0020  0.0045  0.0124  0.0001  0.0004  0.0005  0.0044 </r>
        <r>  0.0008  0.0020  0.0002  0.0038  0.0006  0.0011  0.0000  0.0036  0.0011 </r>
        <r>  0.0003  0.0030  0.0020  0.0041  0.0007  0.0014  0.0002  0.0038  0.0010 </r>
        <r>  0.0003  0.0021  0.0028  0.0033  0.0010  0.0011  0.0005  0.0030  0.0012 </r>
        <r>  0.0004  0.0018  0.0007  0.0033  0.0014  0.0017  0.0001  0.0053  0.0015 </r>
        <r>  0.0002  0.0027  0.0026  0.0034  0.0016  0.0012  0.0001  0.0022  0.0010 </r>
        <r>  0.0001  0.0046  0.0008  0.0048  0.0019  0.0007  0.0005  0.0017  0.0012 </r>
        <r>  0.0000  0.0040  0.0014  0.0031  0.0014  0.0009  0.0005  0.0022  0.0011 </r>
        <r>  0.0002  0.0030  0.0032  0.0019  0.0017  0.0012  0.0000  0.0043  0.0011 </r>
        <r>  0.0207  0.0090  0.0023  0.0037  0.0079  0.0000  0.0008  0.0002  0.0028 </r>
        <r>  0.0197  0.0087  0.0027  0.0061  0.0076  0.0001  0.0001  0.0003  0.0029 </r>
        <r>  0.0186  0.0103  0.0035  0.0024  0.0076  0.0001  0.0000  0.0002  0.0024 </r>
        <r>  0.0192  0.0086  0.0007  0.0038  0.0111  0.0001  0.0010  0.0000  0.0037 </r>
       </set>
       <set comment="band 104">
        <r>  0.0063  0.0011  0.0003  0.0004  0.0005  0.0003  0.0005  0.0001  0.0002 </r>
        <r>  0.0004  0.0002  0.0002  0.0001  0.0006  0.0001  0.0007  0.0000  0.0002 </r>
        <r>  0.0004  0.0002  0.0001  0.0001  0.0007  0.0000  0.0008  0.0001  0.0002 </r>
        <r>  0.0035  0.0015  0.0027  0.0005  0.0007  0.0000  0.0001  0.0001  0.0002 </r>
        <r>  0.0002  0.0002  0.0011  0.0004  0.0000  0.0004  0.0003  0.0005  0.0000 </r>
        <r>  0.0002  0.0001  0.0004  0.0004  0.0000  0.0001  0.0001  0.0003  0.0001 </r>
        <r>  0.0003  0.0003  0.0002  0.0001  0.0000  0.0002  0.0002  0.0003  0.0001 </r>
        <r>  0.0000  0.0001  0.0025  0.0001  0.0001  0.0002  0.0000  0.0003  0.0001 </r>
        <r>  0.0002  0.0000  0.0003  0.0005  0.0000  0.0002  0.0002  0.0002  0.0001 </r>
        <r>  0.0001  0.0002  0.0021  0.0008  0.0000  0.0003  0.0001  0.0002  0.0001 </r>
        <r>  0.0000  0.0001  0.0018  0.0001  0.0000  0.0002  0.0000  0.0004  0.0001 </r>
        <r>  0.0001  0.0003  0.0003  0.0001  0.0000  0.0001  0.0003  0.0005  0.0001 </r>
        <r>  0.0028  0.0013  0.0005  0.0006  0.0003  0.0001  0.0001  0.0001  0.0001 </r>
        <r>  0.0001  0.0001  0.0005  0.0005  0.0005  0.0001  0.0005  0.0000  0.0002 </r>
        <r>  0.0002  0.0003  0.0004  0.0001  0.0004  0.0001  0.0004  0.0001  0.0002 </r>
        <r>  0.0043  0.0007  0.0002  0.0004  0.0005  0.0000  0.0009  0.0000  0.0002 </r>
       </set>
       <set comment="band 105">
        <r>  0.0049  0.0005  0.0008  0.0008  0.0001  0.0010  0.0022  0.0004  0.0001 </r>
        <r>  0.0141  0.0003  0.0016  0.0008  0.0001  0.0001  0.0000  0.0000  0.0000 </r>
        <r>  0.0120  0.0003  0.0007  0.0002  0.0000  0.0001  0.0000  0.0002  0.0001 </r>
        <r>  0.0027  0.0014  0.0016  0.0004  0.0000  0.0012  0.0033  0.0006  0.0001 </r>
        <r>  0.0110  0.0028  0.0009  0.0013  0.0029  0.0002  0.0000  0.0006  0.0009 </r>
        <r>  0.0004  0.0074  0.0000  0.0023  0.0030  0.0002  0.0065  0.0005  0.0007 </r>
        <r>  0.0012  0.0110  0.0005  0.0050  0.0015  0.0004  0.0028  0.0007  0.0011 </r>
        <r>  0.0093  0.0047  0.0024  0.0031  0.0028  0.0002  0.0001  0.0006  0.0011 </r>
        <r>  0.0102  0.0031  0.0015  0.0018  0.0026  0.0003  0.0002  0.0005  0.0012 </r>
        <r>  0.0001  0.0081  0.0005  0.0043  0.0028  0.0001  0.0061  0.0002  0.0007 </r>
        <r>  0.0004  0.0112  0.0006  0.0037  0.0021  0.0005  0.0035  0.0010  0.0012 </r>
        <r>  0.0054  0.0035  0.0025  0.0020  0.0036  0.0004  0.0003  0.0012  0.0012 </r>
        <r>  0.0104  0.0004  0.0024  0.0005  0.0001  0.0001  0.0002  0.0003  0.0001 </r>
        <r>  0.0027  0.0018  0.0009  0.0010  0.0001  0.0006  0.0032  0.0004  0.0001 </r>
        <r>  0.0031  0.0006  0.0003  0.0020  0.0001  0.0009  0.0028  0.0002  0.0003 </r>
        <r>  0.0061  0.0006  0.0097  0.0012  0.0003  0.0002  0.0000  0.0000  0.0003 </r>
       </set>
      </set>
     </set>
    </set>
   </array>
  </projected>
 </calculation>
 <structure name="finalpos" >
  <crystal>
   <varray name="basis" >
    <v>       5.27855212       0.00000000       0.00000000 </v>
    <v>       2.63927606       4.57136023       0.00000000 </v>
    <v>       0.00000000       0.00000000      30.46487964 </v>
   </varray>
   <i name="volume">    735.12251919 </i>
   <varray name="rec_basis" >
    <v>       0.18944589      -0.10937664       0.00000000 </v>
    <v>       0.00000000       0.21875327       0.00000000 </v>
    <v>       0.00000000       0.00000000       0.03282468 </v>
   </varray>
  </crystal>
  <varray name="positions" >
   <v>       0.00000000       0.00000000       0.39389619 </v>
   <v>       0.50000000       0.00000000       0.39389619 </v>
   <v>       0.00000000       0.50000000       0.39389619 </v>
   <v>       0.50000000       0.50000000       0.39389619 </v>
   <v>       0.16666667       0.16666667       0.46463206 </v>
   <v>       0.66666667       0.16666667       0.46463206 </v>
   <v>       0.16666667       0.66666667       0.46463206 </v>
   <v>       0.66666667       0.66666667       0.46463206 </v>
   <v>       0.83637031       0.32459611       0.53686593 </v>
   <v>       0.32956567       0.32915052       0.53365242 </v>
   <v>       0.82978417       0.84205141       0.53664367 </v>
   <v>       0.33432280       0.82296462       0.54078265 </v>
   <v>       0.98261745       0.02254993       0.61017825 </v>
   <v>       0.49714044       0.02502924       0.60849443 </v>
   <v>       0.99589727       0.51371945       0.60466148 </v>
   <v>       0.49175385       0.52254090       0.62463407 </v>
  </varray>
  <varray name="selective"  type="logical" >
   <v type="logical" >  F  F  F </v>
   <v type="logical" >  F  F  F </v>
   <v type="logical" >  F  F  F </v>
   <v type="logical" >  F  F  F </v>
   <v type="logical" >  F  F  F </v>
   <v type="logical" >  F  F  F </v>
   <v type="logical" >  F  F  F </v>
   <v type="logical" >  F  F  F </v>
   <v type="logical" >  T  T  T </v>
   <v type="logical" >  T  T  T </v>
   <v type="logical" >  T  T  T </v>
   <v type="logical" >  T  T  T </v>
   <v type="logical" >  T  T  T </v>
   <v type="logical" >  T  T  T </v>
   <v type="logical" >  T  T  T </v>
   <v type="logical" >  T  T  T </v>
  </varray>
  <nose>
   <v>      -3.00000000       0.00000000       0.00010000       0.00010000 </v>
  </nose>
 </structure>
</modeling>
