Cu-Ag alloy CO adsorption (RPBE, matches
            1
     5.278552    0.000000    0.000000
     2.639276    4.571360    0.000000
     0.000000    0.000000   30.464880
   Cu   Ag   Cu   Ag   Cu   Ag   Cu   Ag
     3     1     3     1     3     1     3     1
Direct configuration=     1
   0.00000000  0.00000000  0.39389619
   0.50000000  0.00000000  0.39389619
   0.00000000  0.50000000  0.39389619
   0.50000000  0.50000000  0.39389619
   0.16666667  0.16666667  0.46463206
   0.66666667  0.16666667  0.46463206
   0.16666667  0.66666667  0.46463206
   0.66666667  0.66666667  0.46463206
   0.83333333  0.33333333  0.53536794
   0.33333333  0.33333333  0.53536794
   0.83333333  0.83333333  0.53536794
   0.33333333  0.83333333  0.53536794
   0.00000000  0.00000000  0.60610381
   0.50000000  0.00000000  0.60610381
   0.00000000  0.50000000  0.60610381
   0.50000000  0.50000000  0.60610381
Direct configuration=     2
   0.00000000  0.00000000  0.39389619
   0.50000000  0.00000000  0.39389619
   0.00000000  0.50000000  0.39389619
   0.50000000  0.50000000  0.39389619
   0.16666667  0.16666667  0.46463206
   0.66666667  0.16666667  0.46463206
   0.16666667  0.66666667  0.46463206
   0.66666667  0.66666667  0.46463206
   0.83703590  0.32957102  0.53522207
   0.33210662  0.33210195  0.53468078
   0.83456596  0.83463639  0.53572586
   0.32695222  0.83965908  0.53523930
   0.99739267  0.00130949  0.60637224
   0.50134463  0.00122736  0.60637949
   0.99993268  0.50001313  0.60586538
   0.50219022  0.49572191  0.60832320
Direct configuration=     3
   0.00000000  0.00000000  0.39389619
   0.50000000  0.00000000  0.39389619
   0.00000000  0.50000000  0.39389619
   0.50000000  0.50000000  0.39389619
   0.16666667  0.16666667  0.46463206
   0.66666667  0.16666667  0.46463206
   0.16666667  0.66666667  0.46463206
   0.66666667  0.66666667  0.46463206
   0.84071751  0.32583000  0.53507702
   0.33088686  0.33087754  0.53399752
   0.83579162  0.83593207  0.53608175
   0.32060722  0.84594902  0.53511140
   0.99480009  0.00261157  0.60663914
   0.50268165  0.00244777  0.60665362
   0.99986574  0.50002618  0.60562830
   0.50436804  0.49146804  0.61053002
Direct configuration=     4
   0.00000000  0.00000000  0.39389619
   0.50000000  0.00000000  0.39389619
   0.00000000  0.50000000  0.39389619
   0.50000000  0.50000000  0.39389619
   0.16666667  0.16666667  0.46463206
   0.66666667  0.16666667  0.46463206
   0.16666667  0.66666667  0.46463206
   0.66666667  0.66666667  0.46463206
   0.83724185  0.32845334  0.53519816
   0.33113497  0.33288028  0.53347468
   0.83440670  0.83656790  0.53644967
   0.32271966  0.84210681  0.53601720
   0.99445920  0.00180982  0.60713899
   0.50370343  0.00142471  0.60692190
   0.99985795  0.50008176  0.60523560
   0.50382036  0.49253969  0.61258598
Direct configuration=     5
   0.00000000  0.00000000  0.39389619
   0.50000000  0.00000000  0.39389619
   0.00000000  0.50000000  0.39389619
   0.50000000  0.50000000  0.39389619
   0.16666667  0.16666667  0.46463206
   0.66666667  0.16666667  0.46463206
   0.16666667  0.66666667  0.46463206
   0.66666667  0.66666667  0.46463206
   0.82985031  0.33403228  0.53545577
   0.33166262  0.33713944  0.53236277
   0.83146146  0.83792009  0.53723212
   0.32721210  0.83393572  0.53794352
   0.99373423  0.00010476  0.60820199
   0.50587641  0.99924900  0.60749245
   0.99984138  0.50019997  0.60440046
   0.50265562  0.49481873  0.61695832
Direct configuration=     6
   0.00000000  0.00000000  0.39389619
   0.50000000  0.00000000  0.39389619
   0.00000000  0.50000000  0.39389619
   0.50000000  0.50000000  0.39389619
   0.16666667  0.16666667  0.46463206
   0.66666667  0.16666667  0.46463206
   0.16666667  0.66666667  0.46463206
   0.66666667  0.66666667  0.46463206
   0.82858791  0.33498511  0.53549976
   0.33175274  0.33786686  0.53217287
   0.83095844  0.83815104  0.53736575
   0.32797937  0.83254018  0.53827252
   0.99361041  0.99981356  0.60838354
   0.50624753  0.99887741  0.60758990
   0.99983855  0.50022016  0.60425782
   0.50245670  0.49520797  0.61770507
Direct configuration=     7
   0.00000000  0.00000000  0.39389619
   0.50000000  0.00000000  0.39389619
   0.00000000  0.50000000  0.39389619
   0.50000000  0.50000000  0.39389619
   0.16666667  0.16666667  0.46463206
   0.66666667  0.16666667  0.46463206
   0.16666667  0.66666667  0.46463206
   0.66666667  0.66666667  0.46463206
   0.83013035  0.33181933  0.53608357
   0.33144406  0.33502856  0.53246054
   0.82893524  0.84040100  0.53728118
   0.32721968  0.83462967  0.53906415
   0.99300922  0.00053386  0.60898401
   0.50569775  0.00021409  0.60803237
   0.00156432  0.49787268  0.60394232
   0.50120288  0.49701390  0.61951800
Direct configuration=     8
   0.00000000  0.00000000  0.39389619
   0.50000000  0.00000000  0.39389619
   0.00000000  0.50000000  0.39389619
   0.50000000  0.50000000  0.39389619
   0.16666667  0.16666667  0.46463206
   0.66666667  0.16666667  0.46463206
   0.16666667  0.66666667  0.46463206
   0.66666667  0.66666667  0.46463206
   0.83158930  0.32882492  0.53663577
   0.33115210  0.33234390  0.53273264
   0.82702155  0.84252917  0.53720118
   0.32650112  0.83660606  0.53981292
   0.99244057  0.00121517  0.60955197
   0.50517773  0.00147841  0.60845088
   0.00319668  0.49565227  0.60364390
   0.50001692  0.49872207  0.62123279
Direct configuration=     9
   0.00000000  0.00000000  0.39389619
   0.50000000  0.00000000  0.39389619
   0.00000000  0.50000000  0.39389619
   0.50000000  0.50000000  0.39389619
   0.16666667  0.16666667  0.46463206
   0.66666667  0.16666667  0.46463206
   0.16666667  0.66666667  0.46463206
   0.66666667  0.66666667  0.46463206
   0.83061708  0.32783767  0.53702869
   0.33022707  0.33259272  0.53332318
   0.82750340  0.84271682  0.53694717
   0.32791402  0.83215497  0.53993711
   0.99043454  0.00291487  0.61027621
   0.50521173  0.00378434  0.60905177
   0.00421383  0.49432038  0.60366375
   0.49923987  0.50109999  0.62253664
Direct configuration=    10
   0.00000000  0.00000000  0.39389619
   0.50000000  0.00000000  0.39389619
   0.00000000  0.50000000  0.39389619
   0.50000000  0.50000000  0.39389619
   0.16666667  0.16666667  0.46463206
   0.66666667  0.16666667  0.46463206
   0.16666667  0.66666667  0.46463206
   0.66666667  0.66666667  0.46463206
   0.83018887  0.32740284  0.53720176
   0.32981964  0.33270232  0.53358329
   0.82771563  0.84279947  0.53683529
   0.32853633  0.83019449  0.53999181
   0.98955098  0.00366350  0.61059519
   0.50522670  0.00479999  0.60931643
   0.00466184  0.49373375  0.60367250
   0.49889762  0.50214734  0.62311093
Direct configuration=    11
   0.00000000  0.00000000  0.39389619
   0.50000000  0.00000000  0.39389619
   0.00000000  0.50000000  0.39389619
   0.50000000  0.50000000  0.39389619
   0.16666667  0.16666667  0.46463206
   0.66666667  0.16666667  0.46463206
   0.16666667  0.66666667  0.46463206
   0.66666667  0.66666667  0.46463206
   0.83027561  0.32749093  0.53716670
   0.32990218  0.33268011  0.53353060
   0.82767264  0.84278273  0.53685795
   0.32841026  0.83059164  0.53998073
   0.98972997  0.00351184  0.61053057
   0.50522367  0.00459424  0.60926281
   0.00457108  0.49385259  0.60367073
   0.49896695  0.50193517  0.62299459
Direct configuration=    12
   0.00000000  0.00000000  0.39389619
   0.50000000  0.00000000  0.39389619
   0.00000000  0.50000000  0.39389619
   0.50000000  0.50000000  0.39389619
   0.16666667  0.16666667  0.46463206
   0.66666667  0.16666667  0.46463206
   0.16666667  0.66666667  0.46463206
   0.66666667  0.66666667  0.46463206
   0.83028127  0.32718655  0.53712245
   0.32930407  0.33184291  0.53367922
   0.82815522  0.84138532  0.53689546
   0.32973298  0.82906797  0.54013719
   0.98954585  0.00398248  0.61064395
   0.50510859  0.00490361  0.60932586
   0.00350320  0.49547101  0.60402197
   0.49848833  0.50452951  0.62320301
Direct configuration=    13
   0.00000000  0.00000000  0.39389619
   0.50000000  0.00000000  0.39389619
   0.00000000  0.50000000  0.39389619
   0.50000000  0.50000000  0.39389619
   0.16666667  0.16666667  0.46463206
   0.66666667  0.16666667  0.46463206
   0.16666667  0.66666667  0.46463206
   0.66666667  0.66666667  0.46463206
   0.83028796  0.32682642  0.53707010
   0.32859641  0.33085236  0.53385507
   0.82872619  0.83973195  0.53693985
   0.33129797  0.82726521  0.54032231
   0.98932801  0.00453932  0.61077809
   0.50497244  0.00526964  0.60940046
   0.00223973  0.49738587  0.60443754
   0.49792203  0.50759903  0.62344961
Direct configuration=    14
   0.00000000  0.00000000  0.39389619
   0.50000000  0.00000000  0.39389619
   0.00000000  0.50000000  0.39389619
   0.50000000  0.50000000  0.39389619
   0.16666667  0.16666667  0.46463206
   0.66666667  0.16666667  0.46463206
   0.16666667  0.66666667  0.46463206
   0.66666667  0.66666667  0.46463206
   0.83121801  0.32544598  0.53704943
   0.32827598  0.32994462  0.53394818
   0.82959175  0.83872806  0.53702524
   0.33117043  0.82663358  0.54043573
   0.98862766  0.00582573  0.61078436
   0.50453984  0.00695101  0.60944093
   0.00160359  0.49876363  0.60474960
   0.49780371  0.50853092  0.62362073
Direct configuration=    15
   0.00000000  0.00000000  0.39389619
   0.50000000  0.00000000  0.39389619
   0.00000000  0.50000000  0.39389619
   0.50000000  0.50000000  0.39389619
   0.16666667  0.16666667  0.46463206
   0.66666667  0.16666667  0.46463206
   0.16666667  0.66666667  0.46463206
   0.66666667  0.66666667  0.46463206
   0.83236978  0.32373646  0.53702383
   0.32787916  0.32882050  0.53406347
   0.83066364  0.83748485  0.53713099
   0.33101247  0.82585139  0.54057618
   0.98776036  0.00741879  0.61079212
   0.50400411  0.00903319  0.60949105
   0.00081580  0.50046982  0.60513604
   0.49765719  0.50968496  0.62383265
Direct configuration=    16
   0.00000000  0.00000000  0.39389619
   0.50000000  0.00000000  0.39389619
   0.00000000  0.50000000  0.39389619
   0.50000000  0.50000000  0.39389619
   0.16666667  0.16666667  0.46463206
   0.66666667  0.16666667  0.46463206
   0.16666667  0.66666667  0.46463206
   0.66666667  0.66666667  0.46463206
   0.83249943  0.32348067  0.53707198
   0.32840208  0.32862276  0.53404619
   0.83029483  0.83750287  0.53718575
   0.33162714  0.82519728  0.54054239
   0.98741643  0.00850650  0.61074342
   0.50329425  0.01055360  0.60946371
   0.00094535  0.50077733  0.60512793
   0.49746493  0.50941311  0.62390571
Direct configuration=    17
   0.00000000  0.00000000  0.39389619
   0.50000000  0.00000000  0.39389619
   0.00000000  0.50000000  0.39389619
   0.50000000  0.50000000  0.39389619
   0.16666667  0.16666667  0.46463206
   0.66666667  0.16666667  0.46463206
   0.16666667  0.66666667  0.46463206
   0.66666667  0.66666667  0.46463206
   0.83258972  0.32330252  0.53710552
   0.32876628  0.32848505  0.53403416
   0.83003797  0.83751541  0.53722389
   0.33205524  0.82474171  0.54051886
   0.98717690  0.00926406  0.61070949
   0.50279986  0.01161252  0.60944466
   0.00103559  0.50099149  0.60512228
   0.49733103  0.50922377  0.62395660
Direct configuration=    18
   0.00000000  0.00000000  0.39389619
   0.50000000  0.00000000  0.39389619
   0.00000000  0.50000000  0.39389619
   0.50000000  0.50000000  0.39389619
   0.16666667  0.16666667  0.46463206
   0.66666667  0.16666667  0.46463206
   0.16666667  0.66666667  0.46463206
   0.66666667  0.66666667  0.46463206
   0.83261780  0.32324712  0.53711595
   0.32887952  0.32844222  0.53403042
   0.82995811  0.83751931  0.53723575
   0.33218835  0.82460005  0.54051154
   0.98710242  0.00949961  0.61069894
   0.50264614  0.01194178  0.60943874
   0.00106364  0.50105808  0.60512052
   0.49728940  0.50916490  0.62397243
Direct configuration=    19
   0.00000000  0.00000000  0.39389619
   0.50000000  0.00000000  0.39389619
   0.00000000  0.50000000  0.39389619
   0.50000000  0.50000000  0.39389619
   0.16666667  0.16666667  0.46463206
   0.66666667  0.16666667  0.46463206
   0.16666667  0.66666667  0.46463206
   0.66666667  0.66666667  0.46463206
   0.83318056  0.32287424  0.53716853
   0.32935942  0.32827246  0.53397605
   0.82987028  0.83764333  0.53728645
   0.33231509  0.82435821  0.54053114
   0.98733238  0.01029816  0.61061042
   0.50176087  0.01286349  0.60935951
   0.00077752  0.50180153  0.60503904
   0.49663679  0.51016524  0.62404748
Direct configuration=    20
   0.00000000  0.00000000  0.39389619
   0.50000000  0.00000000  0.39389619
   0.00000000  0.50000000  0.39389619
   0.50000000  0.50000000  0.39389619
   0.16666667  0.16666667  0.46463206
   0.66666667  0.16666667  0.46463206
   0.16666667  0.66666667  0.46463206
   0.66666667  0.66666667  0.46463206
   0.83348259  0.32267412  0.53719675
   0.32961697  0.32818134  0.53394687
   0.82982314  0.83770989  0.53731366
   0.33238311  0.82422842  0.54054166
   0.98745579  0.01072673  0.61056291
   0.50128575  0.01335816  0.60931698
   0.00062396  0.50220052  0.60499530
   0.49628655  0.51070211  0.62408776
Direct configuration=    21
   0.00000000  0.00000000  0.39389619
   0.50000000  0.00000000  0.39389619
   0.00000000  0.50000000  0.39389619
   0.50000000  0.50000000  0.39389619
   0.16666667  0.16666667  0.46463206
   0.66666667  0.16666667  0.46463206
   0.16666667  0.66666667  0.46463206
   0.66666667  0.66666667  0.46463206
   0.83408666  0.32227388  0.53725319
   0.33013208  0.32799912  0.53388851
   0.82972887  0.83784301  0.53736808
   0.33251916  0.82396883  0.54056270
   0.98770263  0.01158387  0.61046789
   0.50033552  0.01434752  0.60923193
   0.00031685  0.50299852  0.60490783
   0.49558606  0.51177586  0.62416832
Direct configuration=    22
   0.00000000  0.00000000  0.39389619
   0.50000000  0.00000000  0.39389619
   0.00000000  0.50000000  0.39389619
   0.50000000  0.50000000  0.39389619
   0.16666667  0.16666667  0.46463206
   0.66666667  0.16666667  0.46463206
   0.16666667  0.66666667  0.46463206
   0.66666667  0.66666667  0.46463206
   0.83450900  0.32247579  0.53723345
   0.33034584  0.32790251  0.53381079
   0.82986248  0.83802485  0.53733931
   0.33291905  0.82347754  0.54052996
   0.98709396  0.01288410  0.61043791
   0.49991781  0.01527856  0.60913420
   0.99947343  0.50442126  0.60482167
   0.49529652  0.51290924  0.62424277
Direct configuration=    23
   0.00000000  0.00000000  0.39389619
   0.50000000  0.00000000  0.39389619
   0.00000000  0.50000000  0.39389619
   0.50000000  0.50000000  0.39389619
   0.16666667  0.16666667  0.46463206
   0.66666667  0.16666667  0.46463206
   0.16666667  0.66666667  0.46463206
   0.66666667  0.66666667  0.46463206
   0.83564209  0.32301748  0.53718049
   0.33091932  0.32764333  0.53360227
   0.83022092  0.83851270  0.53726211
   0.33399189  0.82215952  0.54044213
   0.98546103  0.01637241  0.61035746
   0.49879718  0.01777640  0.60887200
   0.99721069  0.50823823  0.60459052
   0.49451974  0.51594988  0.62444249
Direct configuration=    24
   0.00000000  0.00000000  0.39389619
   0.50000000  0.00000000  0.39389619
   0.00000000  0.50000000  0.39389619
   0.50000000  0.50000000  0.39389619
   0.16666667  0.16666667  0.46463206
   0.66666667  0.16666667  0.46463206
   0.16666667  0.66666667  0.46463206
   0.66666667  0.66666667  0.46463206
   0.83609733  0.32307113  0.53711540
   0.33086455  0.32751747  0.53357266
   0.83032902  0.83903792  0.53715684
   0.33394800  0.82223091  0.54045121
   0.98484608  0.01747883  0.61032945
   0.49850367  0.01900511  0.60878993
   0.99685410  0.50940556  0.60457871
   0.49399213  0.51702923  0.62449923
Direct configuration=    25
   0.00000000  0.00000000  0.39389619
   0.50000000  0.00000000  0.39389619
   0.00000000  0.50000000  0.39389619
   0.50000000  0.50000000  0.39389619
   0.16666667  0.16666667  0.46463206
   0.66666667  0.16666667  0.46463206
   0.16666667  0.66666667  0.46463206
   0.66666667  0.66666667  0.46463206
   0.83638774  0.32310534  0.53707388
   0.33082961  0.32743718  0.53355377
   0.83039798  0.83937297  0.53708969
   0.33392000  0.82227646  0.54045700
   0.98445380  0.01818462  0.61031157
   0.49831644  0.01978893  0.60873757
   0.99662663  0.51015021  0.60457118
   0.49365556  0.51771776  0.62453542
Direct configuration=    26
   0.00000000  0.00000000  0.39389619
   0.50000000  0.00000000  0.39389619
   0.00000000  0.50000000  0.39389619
   0.50000000  0.50000000  0.39389619
   0.16666667  0.16666667  0.46463206
   0.66666667  0.16666667  0.46463206
   0.16666667  0.66666667  0.46463206
   0.66666667  0.66666667  0.46463206
   0.83696855  0.32317378  0.53699083
   0.33075974  0.32727660  0.53351599
   0.83053589  0.84004305  0.53695539
   0.33386401  0.82236754  0.54046858
   0.98366924  0.01959622  0.61027583
   0.49794197  0.02135655  0.60863286
   0.99617169  0.51163951  0.60455611
   0.49298242  0.51909481  0.62460781
Direct configuration=    27
   0.00000000  0.00000000  0.39389619
   0.50000000  0.00000000  0.39389619
   0.00000000  0.50000000  0.39389619
   0.50000000  0.50000000  0.39389619
   0.16666667  0.16666667  0.46463206
   0.66666667  0.16666667  0.46463206
   0.16666667  0.66666667  0.46463206
   0.66666667  0.66666667  0.46463206
   0.83813017  0.32331066  0.53682474
   0.33061998  0.32695545  0.53344044
   0.83081172  0.84138323  0.53668679
   0.33375202  0.82254972  0.54049175
   0.98210012  0.02241940  0.61020434
   0.49719305  0.02449179  0.60842343
   0.99526180  0.51461812  0.60452597
   0.49163615  0.52184891  0.62475258
Direct configuration=    28
   0.00000000  0.00000000  0.39389619
   0.50000000  0.00000000  0.39389619
   0.00000000  0.50000000  0.39389619
   0.50000000  0.50000000  0.39389619
   0.16666667  0.16666667  0.46463206
   0.66666667  0.16666667  0.46463206
   0.16666667  0.66666667  0.46463206
   0.66666667  0.66666667  0.46463206
   0.83721956  0.32320336  0.53695494
   0.33072954  0.32720721  0.53349967
   0.83059550  0.84033264  0.53689735
   0.33383981  0.82240691  0.54047359
   0.98333018  0.02020626  0.61026038
   0.49778014  0.02203402  0.60858760
   0.99597508  0.51228314  0.60454960
   0.49269152  0.51968992  0.62463909
Direct configuration=    29
   0.00000000  0.00000000  0.39389619
   0.50000000  0.00000000  0.39389619
   0.00000000  0.50000000  0.39389619
   0.50000000  0.50000000  0.39389619
   0.16666667  0.16666667  0.46463206
   0.66666667  0.16666667  0.46463206
   0.16666667  0.66666667  0.46463206
   0.66666667  0.66666667  0.46463206
   0.83685570  0.32381591  0.53690462
   0.33043547  0.32772698  0.53355004
   0.83020121  0.84094388  0.53677960
   0.33429791  0.82235975  0.54058759
   0.98306614  0.02103278  0.61022929
   0.49747245  0.02318806  0.60853441
   0.99602433  0.51282553  0.60459882
   0.49221632  0.52071366  0.62463477
Direct configuration=    30
   0.00000000  0.00000000  0.39389619
   0.50000000  0.00000000  0.39389619
   0.00000000  0.50000000  0.39389619
   0.50000000  0.50000000  0.39389619
   0.16666667  0.16666667  0.46463206
   0.66666667  0.16666667  0.46463206
   0.16666667  0.66666667  0.46463206
   0.66666667  0.66666667  0.46463206
   0.83660875  0.32423164  0.53687046
   0.33023590  0.32807974  0.53358423
   0.82993362  0.84135872  0.53669968
   0.33460882  0.82232774  0.54066495
   0.98288694  0.02159372  0.61020819
   0.49726362  0.02397128  0.60849831
   0.99605775  0.51319364  0.60463222
   0.49189381  0.52140846  0.62463184
Direct configuration=    31
   0.00000000  0.00000000  0.39389619
   0.50000000  0.00000000  0.39389619
   0.00000000  0.50000000  0.39389619
   0.50000000  0.50000000  0.39389619
   0.16666667  0.16666667  0.46463206
   0.66666667  0.16666667  0.46463206
   0.16666667  0.66666667  0.46463206
   0.66666667  0.66666667  0.46463206
   0.83611487  0.32506309  0.53680215
   0.32983674  0.32878525  0.53365261
   0.82939843  0.84218840  0.53653985
   0.33523063  0.82226372  0.54081969
   0.98252854  0.02271561  0.61016600
   0.49684597  0.02553772  0.60842610
   0.99612460  0.51392986  0.60469902
   0.49124880  0.52279804  0.62462598
Direct configuration=    32
   0.00000000  0.00000000  0.39389619
   0.50000000  0.00000000  0.39389619
   0.00000000  0.50000000  0.39389619
   0.50000000  0.50000000  0.39389619
   0.16666667  0.16666667  0.46463206
   0.66666667  0.16666667  0.46463206
   0.16666667  0.66666667  0.46463206
   0.66666667  0.66666667  0.46463206
   0.83649192  0.32442834  0.53685430
   0.33014147  0.32824664  0.53360041
   0.82980701  0.84155500  0.53666187
   0.33475592  0.82231259  0.54070156
   0.98280215  0.02185913  0.61019821
   0.49716482  0.02434185  0.60848122
   0.99607357  0.51336781  0.60464802
   0.49174123  0.52173719  0.62463046
Direct configuration=    33
   0.00000000  0.00000000  0.39389619
   0.50000000  0.00000000  0.39389619
   0.00000000  0.50000000  0.39389619
   0.50000000  0.50000000  0.39389619
   0.16666667  0.16666667  0.46463206
   0.66666667  0.16666667  0.46463206
   0.16666667  0.66666667  0.46463206
   0.66666667  0.66666667  0.46463206
   0.83637031  0.32459611  0.53686593
   0.32956567  0.32915052  0.53365242
   0.82978417  0.84205141  0.53664367
   0.33432280  0.82296462  0.54078265
   0.98261745  0.02254993  0.61017825
   0.49714044  0.02502924  0.60849443
   0.99589727  0.51371945  0.60466148
   0.49175385  0.52254090  0.62463407
